
     Program PWSCF v.6.7MaX starts on  9Sep2025 at  5: 5: 7 

     This program is part of the open-source Quantum ESPRESSO suite
     for quantum simulation of materials; please cite
         "P. Giannozzi et al., J. Phys.:Condens. Matter 21 395502 (2009);
         "P. Giannozzi et al., J. Phys.:Condens. Matter 29 465901 (2017);
          URL http://www.quantum-espresso.org", 
     in publications or presentations arising from this work. More details at
     http://www.quantum-espresso.org/quote

     Parallel version (MPI), running on    16 processors

     MPI processes distributed on     1 nodes
     R & G space division:  proc/nbgrp/npool/nimage =      16
     Reading input from espresso.opt.in
Warning: card &CELL ignored
Warning: card / ignored

     Current dimensions of program PWSCF are:
     Max number of different atomic species (ntypx) = 10
     Max number of k-points (npk) =  40000
     Max angular momentum in pseudopotentials (lmaxx) =  3
     file O.pbe-rrkjus.UPF: wavefunction(s)  2S renormalized
     file N.pbe-rrkjus.UPF: wavefunction(s)  2S renormalized
     file H.pbe-rrkjus.UPF: wavefunction(s)  1S renormalized

     gamma-point specific algorithms are used

     Subspace diagonalization in iterative solution of the eigenvalue problem:
     one sub-group per band group will be used
     scalapack distributed-memory algorithm (size of sub-group:  4*  4 procs)


     Parallelization info
     --------------------
     sticks:   dense  smooth     PW     G-vecs:    dense   smooth      PW
     Min         564     250     62                97672    28938    3618
     Max         566     252     64                97680    28956    3632
     Sum        9041    4023   1005              1562811   463171   57987



     bravais-lattice index     =           12
     lattice parameter (alat)  =      24.8191  a.u.
     unit-cell volume          =   27422.4424 (a.u.)^3
     number of atoms/cell      =          134
     number of atomic types    =            4
     number of electrons       =      1107.00
     number of Kohn-Sham states=          665
     kinetic-energy cutoff     =      25.0000  Ry
     charge density cutoff     =     225.0000  Ry
     scf convergence threshold =      1.0E-04
     mixing beta               =       0.1000
     number of iterations used =            8  plain     mixing
     energy convergence thresh.=      1.0E-04
     force convergence thresh. =      1.0E-02
     Exchange-correlation=  SLA  PW   PBE  PBE
                           (   1   4   3   4   0   0   0)
     nstep                     =          100


     celldm(1)=  24.819131  celldm(2)=   1.039595  celldm(3)=   2.189034
     celldm(4)=  -0.615435  celldm(5)=   0.000000  celldm(6)=   0.000000

     crystal axes: (cart. coord. in units of alat)
               a(1) = (   1.000000   0.000000   0.000000 )  
               a(2) = (  -0.639802   0.819396   0.000000 )  
               a(3) = (   0.000000   0.000000   2.189034 )  

     reciprocal axes: (cart. coord. in units 2 pi/alat)
               b(1) = (  1.000000  0.780822 -0.000000 )  
               b(2) = (  0.000000  1.220411  0.000000 )  
               b(3) = (  0.000000 -0.000000  0.456822 )  


     PseudoPot. # 1 for O  read from file:
     ./O.pbe-rrkjus.UPF
     MD5 check sum: 390ba29e75625707450f3bd3f0eb6be9
     Pseudo is Ultrasoft, Zval =  6.0
     Generated by new atomic code, or converted to UPF format
     Using radial grid of 1269 points,  4 beta functions with: 
                l(1) =   0
                l(2) =   0
                l(3) =   1
                l(4) =   1
     Q(r) pseudized with 0 coefficients 


     PseudoPot. # 2 for Cu read from file:
     ./Cu.pbe-n-van_ak.UPF
     MD5 check sum: f96b10b0f61dc418faf9c97f6ccca034
     Pseudo is Ultrasoft + core correction, Zval = 11.0
     Generated by new atomic code, or converted to UPF format
     Using radial grid of  867 points,  6 beta functions with: 
                l(1) =   0
                l(2) =   0
                l(3) =   1
                l(4) =   1
                l(5) =   2
                l(6) =   2
     Q(r) pseudized with  8 coefficients,  rinner =    1.400   1.400   1.400
                                                       1.400   1.400

     PseudoPot. # 3 for N  read from file:
     ./N.pbe-rrkjus.UPF
     MD5 check sum: 0c3fbe5807a93f9ba59d5a7019aa238b
     Pseudo is Ultrasoft, Zval =  5.0
     Generated by new atomic code, or converted to UPF format
     Using radial grid of 1257 points,  4 beta functions with: 
                l(1) =   0
                l(2) =   0
                l(3) =   1
                l(4) =   1
     Q(r) pseudized with 0 coefficients 


     PseudoPot. # 4 for H  read from file:
     ./H.pbe-rrkjus.UPF
     MD5 check sum: 7cc9d459525c9a0585f487a71c3c9563
     Pseudo is Ultrasoft, Zval =  1.0
     Generated by new atomic code, or converted to UPF format
     Using radial grid of 1061 points,  2 beta functions with: 
                l(1) =   0
                l(2) =   0
     Q(r) pseudized with 0 coefficients 


     atomic species   valence    mass     pseudopotential
        O              6.00    15.99940     O ( 1.00)
        Cu            11.00    63.54600     Cu( 1.00)
        N              5.00    14.00674     N ( 1.00)
        H              1.00     1.00794     H ( 1.00)

     Starting magnetic structure 
     atomic species   magnetization
        O            0.000
        Cu           0.200
        N            0.000
        H            0.000

     No symmetry found



   Cartesian axes

     site n.     atom                  positions (alat units)
         1           O   tau(   1) = (   0.6430778   0.2639823   1.4214811  )
         2           O   tau(   2) = (  -0.2669102   0.4686446   1.4213066  )
         3           Cu  tau(   3) = (  -0.0667249   0.1218681   1.3804931  )
         4           Cu  tau(   4) = (   0.1765424   0.1258005   1.3854772  )
         5           Cu  tau(   5) = (  -0.2333619   0.3306361   1.3853592  )
         6           Cu  tau(   6) = (   0.0234792   0.3265847   1.3805054  )
         7           O   tau(   7) = (   0.8068059   0.1891577   1.3446814  )
         8           O   tau(   8) = (  -0.1029025   0.3939772   1.3447857  )
         9           O   tau(   9) = (  -0.0479939   0.1140161   1.2247094  )
        10           O   tau(  10) = (   0.0422645   0.3188590   1.2247269  )
        11           Cu  tau(  11) = (   0.8263002   0.1806362   1.1933961  )
        12           Cu  tau(  12) = (   0.0757524   0.1811765   1.1843059  )
        13           Cu  tau(  13) = (   0.6658749   0.3860383   1.1843918  )
        14           Cu  tau(  14) = (  -0.0835217   0.3854680   1.1934564  )
        15           O   tau(  15) = (   0.7026051   0.2469256   1.1458175  )
        16           O   tau(  16) = (  -0.2072297   0.4517355   1.1458653  )
        17           O   tau(  17) = (   0.8488597   0.1700563   1.0442088  )
        18           O   tau(  18) = (  -0.0610908   0.3749054   1.0442090  )
        19           Cu  tau(  19) = (   0.7234609   0.2370091   0.9986641  )
        20           Cu  tau(  20) = (  -0.0265416   0.2370067   0.9986615  )
        21           Cu  tau(  21) = (   0.5635099   0.4418637   0.9986599  )
        22           Cu  tau(  22) = (  -0.1864927   0.4418614   0.9986572  )
        23           O   tau(  23) = (   0.0080097   0.0991163   0.9531124  )
        24           O   tau(  24) = (   0.0980590   0.3039650   0.9531122  )
        25           O   tau(  25) = (   0.7477078   0.2256112   0.8524958  )
        26           O   tau(  26) = (  -0.1622429   0.4304600   0.8524956  )
        27           Cu  tau(  27) = (   0.0322596   0.0877148   0.8069509  )
        28           Cu  tau(  28) = (   0.2822570   0.0877125   0.8069483  )
        29           Cu  tau(  29) = (  -0.1276916   0.2925694   0.8069466  )
        30           Cu  tau(  30) = (   0.1223060   0.2925671   0.8069439  )
        31           O   tau(  31) = (  -0.0931424   0.1546708   0.7613990  )
        32           O   tau(  32) = (  -0.0030929   0.3595200   0.7613992  )
        33           O   tau(  33) = (   0.3228843   0.6735559   1.4213534  )
        34           O   tau(  34) = (   0.0528221   0.0592017   1.4215222  )
        35           Cu  tau(  35) = (  -0.3865091   0.5311805   1.3803118  )
        36           Cu  tau(  36) = (  -0.1434232   0.5355436   1.3853596  )
        37           Cu  tau(  37) = (  -0.5534634   0.7403425   1.3854845  )
        38           Cu  tau(  38) = (  -0.2965475   0.7362281   1.3803407  )
        39           O   tau(  39) = (   0.4871556   0.5987298   1.3447274  )
        40           O   tau(  40) = (  -0.4230018   0.8036433   1.3446777  )
        41           O   tau(  41) = (  -0.3676854   0.5237658   1.2246458  )
        42           O   tau(  42) = (  -0.2777362   0.7285616   1.2247120  )
        43           Cu  tau(  43) = (   0.5065974   0.5902490   1.1933837  )
        44           Cu  tau(  44) = (  -0.2439879   0.5908946   1.1843546  )
        45           Cu  tau(  45) = (   0.3458372   0.7957104   1.1842772  )
        46           Cu  tau(  46) = (  -0.4034236   0.7951672   1.1933792  )
        47           O   tau(  47) = (   0.3829672   0.6565776   1.1458666  )
        48           O   tau(  48) = (   0.1126707   0.0420477   1.1458339  )
        49           O   tau(  49) = (   0.5289585   0.5797542   1.0442088  )
        50           O   tau(  50) = (  -0.3809919   0.7846034   1.0442090  )
        51           Cu  tau(  51) = (   0.4035597   0.6467071   0.9986641  )
        52           Cu  tau(  52) = (  -0.3464428   0.6467047   0.9986615  )
        53           Cu  tau(  53) = (   0.8834110   0.0321657   0.9986599  )
        54           Cu  tau(  54) = (   0.1334086   0.0321634   0.9986572  )
        55           O   tau(  55) = (  -0.3118915   0.5088142   0.9531124  )
        56           O   tau(  56) = (  -0.2218422   0.7136630   0.9531122  )
        57           O   tau(  57) = (   0.4278066   0.6353092   0.8524958  )
        58           O   tau(  58) = (   0.1576582   0.0207620   0.8524956  )
        59           Cu  tau(  59) = (  -0.2876417   0.4974128   0.8069509  )
        60           Cu  tau(  60) = (  -0.0376442   0.4974105   0.8069483  )
        61           Cu  tau(  61) = (  -0.4475927   0.7022674   0.8069466  )
        62           Cu  tau(  62) = (  -0.1975952   0.7022651   0.8069439  )
        63           O   tau(  63) = (  -0.4130436   0.5643688   0.7613990  )
        64           O   tau(  64) = (  -0.3229941   0.7692179   0.7613992  )
        65           O   tau(  65) = (   0.1431266   0.2640090   1.4213997  )
        66           O   tau(  66) = (   0.2331203   0.4686512   1.4212122  )
        67           Cu  tau(  67) = (   0.4334764   0.1218750   1.3803919  )
        68           Cu  tau(  68) = (   0.6763918   0.1258586   1.3853805  )
        69           Cu  tau(  69) = (   0.2668001   0.3305968   1.3854125  )
        70           Cu  tau(  70) = (   0.5236081   0.3265562   1.3804098  )
        71           O   tau(  71) = (   0.3070104   0.1891287   1.3446890  )
        72           O   tau(  72) = (   0.3972663   0.3939552   1.3447723  )
        73           O   tau(  73) = (   0.4521067   0.1140219   1.2247636  )
        74           O   tau(  74) = (   0.5422557   0.3187812   1.2247842  )
        75           Cu  tau(  75) = (   0.3264909   0.1806711   1.1933732  )
        76           Cu  tau(  76) = (   0.5757625   0.1811702   1.1843796  )
        77           Cu  tau(  77) = (   0.1659315   0.3860782   1.1843242  )
        78           Cu  tau(  78) = (   0.4165972   0.3854315   1.1933968  )
        79           O   tau(  79) = (   0.2027433   0.2469072   1.1458459  )
        80           O   tau(  80) = (   0.2929135   0.4517365   1.1458679  )
        81           O   tau(  81) = (   0.3488597   0.1700563   1.0442088  )
        82           O   tau(  82) = (   0.4389092   0.3749054   1.0442090  )
        83           Cu  tau(  83) = (   0.2234609   0.2370091   0.9986641  )
        84           Cu  tau(  84) = (   0.4734584   0.2370067   0.9986615  )
        85           Cu  tau(  85) = (   0.0635099   0.4418637   0.9986599  )
        86           Cu  tau(  86) = (   0.3135074   0.4418614   0.9986572  )
        87           O   tau(  87) = (   0.5080097   0.0991163   0.9531124  )
        88           O   tau(  88) = (   0.5980590   0.3039650   0.9531122  )
        89           O   tau(  89) = (   0.2477078   0.2256112   0.8524958  )
        90           O   tau(  90) = (   0.3377571   0.4304600   0.8524956  )
        91           Cu  tau(  91) = (   0.5322595   0.0877148   0.8069509  )
        92           Cu  tau(  92) = (   0.7822570   0.0877125   0.8069483  )
        93           Cu  tau(  93) = (   0.3723085   0.2925694   0.8069466  )
        94           Cu  tau(  94) = (   0.6223060   0.2925671   0.8069439  )
        95           O   tau(  95) = (   0.4068576   0.1546708   0.7613990  )
        96           O   tau(  96) = (   0.4969071   0.3595200   0.7613992  )
        97           O   tau(  97) = (  -0.1770629   0.6735715   1.4214285  )
        98           O   tau(  98) = (   0.5528383   0.0592149   1.4215689  )
        99           Cu  tau(  99) = (   0.1134348   0.5313054   1.3803235  )
       100           Cu  tau( 100) = (   0.3566878   0.5354695   1.3854211  )
       101           Cu  tau( 101) = (  -0.0535687   0.7404382   1.3853751  )
       102           Cu  tau( 102) = (   0.2032796   0.7363253   1.3803980  )
       103           O   tau( 103) = (  -0.0129359   0.5988376   1.3446847  )
       104           O   tau( 104) = (   0.0768491   0.8037587   1.3446178  )
       105           O   tau( 105) = (   0.1323126   0.5238153   1.2245844  )
       106           O   tau( 106) = (   0.2221461   0.7285346   1.2246499  )
       107           Cu  tau( 107) = (   0.0065689   0.5903715   1.1934076  )
       108           Cu  tau( 108) = (   0.2559732   0.5909020   1.1842610  )
       109           Cu  tau( 109) = (  -0.1540490   0.7957307   1.1843827  )
       110           Cu  tau( 110) = (   0.0964714   0.7952088   1.1933744  )
       111           O   tau( 111) = (  -0.1170771   0.6566539   1.1458721  )
       112           O   tau( 112) = (   0.6126312   0.0421407   1.1458106  )
       113           O   tau( 113) = (   0.0289585   0.5797542   1.0442088  )
       114           O   tau( 114) = (   0.1190080   0.7846034   1.0442090  )
       115           Cu  tau( 115) = (  -0.0964402   0.6467071   0.9986641  )
       116           Cu  tau( 116) = (   0.1535572   0.6467047   0.9986615  )
       117           Cu  tau( 117) = (   0.3834111   0.0321657   0.9986599  )
       118           Cu  tau( 118) = (   0.6334086   0.0321634   0.9986572  )
       119           O   tau( 119) = (   0.1881085   0.5088142   0.9531124  )
       120           O   tau( 120) = (   0.2781578   0.7136630   0.9531122  )
       121           O   tau( 121) = (  -0.0721933   0.6353092   0.8524958  )
       122           O   tau( 122) = (   0.6576583   0.0207620   0.8524956  )
       123           Cu  tau( 123) = (   0.2123584   0.4974128   0.8069509  )
       124           Cu  tau( 124) = (   0.4623558   0.4974105   0.8069483  )
       125           Cu  tau( 125) = (   0.0524072   0.7022674   0.8069466  )
       126           Cu  tau( 126) = (   0.3024048   0.7022651   0.8069439  )
       127           O   tau( 127) = (   0.0869564   0.5643688   0.7613990  )
       128           O   tau( 128) = (   0.1770059   0.7692179   0.7613992  )
       129           N   tau( 129) = (   0.1198004   0.5339427   1.5200102  )
       130           H   tau( 130) = (   0.1237884   0.4222423   1.5759706  )
       131           H   tau( 131) = (   0.0364053   0.3841680   1.5830612  )
       132           N   tau( 132) = (   0.2070494   0.5230050   1.5605966  )
       133           O   tau( 133) = (   0.0945381   0.3963164   1.5297103  )
       134           H   tau( 134) = (   0.0029857   0.6206303   1.4285021  )

     number of k points=     1  Gaussian smearing, width (Ry)=  0.0100
                       cart. coord. in units 2pi/alat
        k(    1) = (   0.0000000   0.0000000   0.0000000), wk =   1.0000000

     Dense  grid:   781406 G-vectors     FFT dimensions: ( 120, 125, 270)

     Smooth grid:   231586 G-vectors     FFT dimensions: (  80,  90, 180)

     Estimated max dynamical RAM per process >     456.95 MB

     Estimated total dynamical RAM >       7.14 GB
     Generating pointlists ...
     new r_m :   0.0250 (alat units)  0.6200 (a.u.) for type    1
     new r_m :   0.0575 (alat units)  1.4264 (a.u.) for type    2
     new r_m :   0.0399 (alat units)  0.9915 (a.u.) for type    3
     new r_m :   0.0250 (alat units)  0.6200 (a.u.) for type    4

     Initial potential from superposition of free atoms

     starting charge 1105.95453, renormalised to 1107.00000

     negative rho (up, down):  1.959E-03 1.410E-03
     Starting wfcs are  847 randomized atomic wfcs

     total cpu time spent up to now is       83.1 secs

     Self-consistent Calculation

     iteration #  1     ecut=    25.00 Ry     beta= 0.10
     Davidson diagonalization with overlap
     ethr =  1.00E-02,  avg # of iterations =  2.0

     negative rho (up, down):  1.594E-03 1.570E-03

     total cpu time spent up to now is      268.2 secs

     total energy              =   -9872.99827546 Ry
     estimated scf accuracy    <     120.95882356 Ry

     total magnetization       =    69.59 Bohr mag/cell
     absolute magnetization    =    72.63 Bohr mag/cell

     iteration #  2     ecut=    25.00 Ry     beta= 0.10
     Davidson diagonalization with overlap
     ethr =  1.00E-02,  avg # of iterations =  3.0

     negative rho (up, down):  5.381E-03 5.215E-03

     total cpu time spent up to now is      451.2 secs

     total energy              =   -9859.09151376 Ry
     estimated scf accuracy    <    1738.47258690 Ry

     total magnetization       =    59.30 Bohr mag/cell
     absolute magnetization    =    61.43 Bohr mag/cell

     iteration #  3     ecut=    25.00 Ry     beta= 0.10
     Davidson diagonalization with overlap
     ethr =  1.00E-02,  avg # of iterations =  1.0

     negative rho (up, down):  5.868E-03 5.598E-03

     total cpu time spent up to now is      610.9 secs

     total energy              =   -9882.64229805 Ry
     estimated scf accuracy    <      43.72063197 Ry

     total magnetization       =    43.53 Bohr mag/cell
     absolute magnetization    =    45.77 Bohr mag/cell

     iteration #  4     ecut=    25.00 Ry     beta= 0.10
     Davidson diagonalization with overlap
     ethr =  3.95E-03,  avg # of iterations =  2.5

     negative rho (up, down):  4.738E-03 4.476E-03

     total cpu time spent up to now is      793.2 secs

     total energy              =   -9883.19873343 Ry
     estimated scf accuracy    <      52.90957417 Ry

     total magnetization       =    45.16 Bohr mag/cell
     absolute magnetization    =    47.33 Bohr mag/cell

     iteration #  5     ecut=    25.00 Ry     beta= 0.10
     Davidson diagonalization with overlap
     ethr =  3.95E-03,  avg # of iterations =  2.0

     negative rho (up, down):  4.384E-03 4.443E-03

     total cpu time spent up to now is      974.4 secs

     total energy              =   -9884.39280369 Ry
     estimated scf accuracy    <      12.20303502 Ry

     total magnetization       =    38.91 Bohr mag/cell
     absolute magnetization    =    40.53 Bohr mag/cell

     iteration #  6     ecut=    25.00 Ry     beta= 0.10
     Davidson diagonalization with overlap
     ethr =  1.10E-03,  avg # of iterations =  6.0

     negative rho (up, down):  3.832E-03 4.449E-03

     total cpu time spent up to now is     1159.2 secs

     total energy              =   -9884.70119516 Ry
     estimated scf accuracy    <       6.35596222 Ry

     total magnetization       =    38.78 Bohr mag/cell
     absolute magnetization    =    40.26 Bohr mag/cell

     iteration #  7     ecut=    25.00 Ry     beta= 0.10
     Davidson diagonalization with overlap
     ethr =  5.74E-04,  avg # of iterations =  8.5

     negative rho (up, down):  3.328E-03 4.772E-03

     total cpu time spent up to now is     1345.7 secs

     total energy              =   -9884.96759494 Ry
     estimated scf accuracy    <       4.67584876 Ry

     total magnetization       =    36.11 Bohr mag/cell
     absolute magnetization    =    37.61 Bohr mag/cell

     iteration #  8     ecut=    25.00 Ry     beta= 0.10
     Davidson diagonalization with overlap
     ethr =  4.22E-04,  avg # of iterations =  1.0

     negative rho (up, down):  2.949E-03 5.046E-03

     total cpu time spent up to now is     1504.1 secs

     total energy              =   -9885.16749013 Ry
     estimated scf accuracy    <       3.46336247 Ry

     total magnetization       =    33.23 Bohr mag/cell
     absolute magnetization    =    34.77 Bohr mag/cell

     iteration #  9     ecut=    25.00 Ry     beta= 0.10
     Davidson diagonalization with overlap
     ethr =  3.13E-04,  avg # of iterations =  2.0

     negative rho (up, down):  4.224E-03 8.526E-03

     total cpu time spent up to now is     1684.2 secs

     total energy              =   -9885.51351538 Ry
     estimated scf accuracy    <       2.68890559 Ry

     total magnetization       =    31.64 Bohr mag/cell
     absolute magnetization    =    33.22 Bohr mag/cell

     iteration # 10     ecut=    25.00 Ry     beta= 0.10
     Davidson diagonalization with overlap
     ethr =  2.43E-04,  avg # of iterations = 12.5

     negative rho (up, down):  7.113E-03 1.470E-02

     total cpu time spent up to now is     1874.4 secs

     total energy              =   -9885.84048068 Ry
     estimated scf accuracy    <       2.06222763 Ry

     total magnetization       =    27.78 Bohr mag/cell
     absolute magnetization    =    29.52 Bohr mag/cell

     iteration # 11     ecut=    25.00 Ry     beta= 0.10
     Davidson diagonalization with overlap
     ethr =  1.86E-04,  avg # of iterations =  3.0

     negative rho (up, down):  8.247E-03 1.721E-02

     total cpu time spent up to now is     2056.3 secs

     total energy              =   -9885.99089836 Ry
     estimated scf accuracy    <       0.96321239 Ry

     total magnetization       =    23.40 Bohr mag/cell
     absolute magnetization    =    25.35 Bohr mag/cell

     iteration # 12     ecut=    25.00 Ry     beta= 0.10
     Davidson diagonalization with overlap
     c_bands:  1 eigenvalues not converged
     ethr =  8.70E-05,  avg # of iterations = 17.5

     negative rho (up, down):  1.162E-02 2.267E-02

     total cpu time spent up to now is     2253.8 secs

     total energy              =   -9886.07866603 Ry
     estimated scf accuracy    <       0.68867629 Ry

     total magnetization       =    21.05 Bohr mag/cell
     absolute magnetization    =    23.08 Bohr mag/cell

     iteration # 13     ecut=    25.00 Ry     beta= 0.10
     Davidson diagonalization with overlap
     ethr =  6.22E-05,  avg # of iterations =  2.0

     negative rho (up, down):  1.306E-02 2.391E-02

     total cpu time spent up to now is     2433.9 secs

     total energy              =   -9886.10629015 Ry
     estimated scf accuracy    <       0.36073257 Ry

     total magnetization       =    18.52 Bohr mag/cell
     absolute magnetization    =    20.63 Bohr mag/cell

     iteration # 14     ecut=    25.00 Ry     beta= 0.10
     Davidson diagonalization with overlap
     ethr =  3.26E-05,  avg # of iterations =  6.5

     negative rho (up, down):  1.528E-02 2.566E-02

     total cpu time spent up to now is     2614.6 secs

     total energy              =   -9886.12261201 Ry
     estimated scf accuracy    <       0.59857055 Ry

     total magnetization       =    17.45 Bohr mag/cell
     absolute magnetization    =    19.58 Bohr mag/cell

     iteration # 15     ecut=    25.00 Ry     beta= 0.10
     Davidson diagonalization with overlap
     ethr =  3.26E-05,  avg # of iterations =  1.0

     negative rho (up, down):  1.864E-02 2.759E-02

     total cpu time spent up to now is     2767.0 secs

     total energy              =   -9886.14635102 Ry
     estimated scf accuracy    <       0.26674484 Ry

     total magnetization       =    15.90 Bohr mag/cell
     absolute magnetization    =    18.06 Bohr mag/cell

     iteration # 16     ecut=    25.00 Ry     beta= 0.10
     Davidson diagonalization with overlap
     ethr =  2.41E-05,  avg # of iterations =  1.5

     negative rho (up, down):  1.779E-02 2.600E-02

     total cpu time spent up to now is     2930.6 secs

     total energy              =   -9886.15844478 Ry
     estimated scf accuracy    <       0.08644323 Ry

     total magnetization       =    14.51 Bohr mag/cell
     absolute magnetization    =    16.63 Bohr mag/cell

     iteration # 17     ecut=    25.00 Ry     beta= 0.10
     Davidson diagonalization with overlap
     ethr =  7.81E-06,  avg # of iterations =  6.0

     negative rho (up, down):  1.578E-02 2.282E-02

     total cpu time spent up to now is     3108.6 secs

     total energy              =   -9886.16559141 Ry
     estimated scf accuracy    <       0.06447525 Ry

     total magnetization       =    13.82 Bohr mag/cell
     absolute magnetization    =    15.87 Bohr mag/cell

     iteration # 18     ecut=    25.00 Ry     beta= 0.10
     Davidson diagonalization with overlap
     ethr =  5.82E-06,  avg # of iterations =  1.5

     negative rho (up, down):  1.366E-02 2.018E-02

     total cpu time spent up to now is     3276.3 secs

     total energy              =   -9886.16914345 Ry
     estimated scf accuracy    <       0.05607226 Ry

     total magnetization       =    12.81 Bohr mag/cell
     absolute magnetization    =    14.75 Bohr mag/cell

     iteration # 19     ecut=    25.00 Ry     beta= 0.10
     Davidson diagonalization with overlap
     ethr =  5.07E-06,  avg # of iterations =  3.5

     negative rho (up, down):  1.139E-02 1.634E-02

     total cpu time spent up to now is     3457.3 secs

     total energy              =   -9886.17616717 Ry
     estimated scf accuracy    <       0.03924614 Ry

     total magnetization       =    12.62 Bohr mag/cell
     absolute magnetization    =    14.48 Bohr mag/cell

     iteration # 20     ecut=    25.00 Ry     beta= 0.10
     Davidson diagonalization with overlap
     ethr =  3.55E-06,  avg # of iterations =  6.5

     negative rho (up, down):  9.148E-03 1.292E-02

     total cpu time spent up to now is     3641.6 secs

     total energy              =   -9886.18143131 Ry
     estimated scf accuracy    <       0.04011117 Ry

     total magnetization       =    11.36 Bohr mag/cell
     absolute magnetization    =    13.05 Bohr mag/cell

     iteration # 21     ecut=    25.00 Ry     beta= 0.10
     Davidson diagonalization with overlap
     c_bands:  1 eigenvalues not converged
     ethr =  3.55E-06,  avg # of iterations = 13.5

     negative rho (up, down):  8.085E-03 1.125E-02

     total cpu time spent up to now is     3833.7 secs

     total energy              =   -9886.18533318 Ry
     estimated scf accuracy    <       0.02568812 Ry

     total magnetization       =    10.56 Bohr mag/cell
     absolute magnetization    =    12.10 Bohr mag/cell

     iteration # 22     ecut=    25.00 Ry     beta= 0.10
     Davidson diagonalization with overlap
     ethr =  2.32E-06,  avg # of iterations =  9.5

     negative rho (up, down):  7.217E-03 9.489E-03

     total cpu time spent up to now is     4023.1 secs

     total energy              =   -9886.18864315 Ry
     estimated scf accuracy    <       0.01477844 Ry

     total magnetization       =    10.09 Bohr mag/cell
     absolute magnetization    =    11.54 Bohr mag/cell

     iteration # 23     ecut=    25.00 Ry     beta= 0.10
     Davidson diagonalization with overlap
     ethr =  1.33E-06,  avg # of iterations =  4.0

     negative rho (up, down):  6.527E-03 8.547E-03

     total cpu time spent up to now is     4206.2 secs

     total energy              =   -9886.19033671 Ry
     estimated scf accuracy    <       0.01168102 Ry

     total magnetization       =     9.36 Bohr mag/cell
     absolute magnetization    =    10.70 Bohr mag/cell

     iteration # 24     ecut=    25.00 Ry     beta= 0.10
     Davidson diagonalization with overlap
     ethr =  1.06E-06,  avg # of iterations =  4.0

     negative rho (up, down):  5.958E-03 8.016E-03

     total cpu time spent up to now is     4389.2 secs

     total energy              =   -9886.19108764 Ry
     estimated scf accuracy    <       0.01316856 Ry

     total magnetization       =     8.97 Bohr mag/cell
     absolute magnetization    =    10.25 Bohr mag/cell

     iteration # 25     ecut=    25.00 Ry     beta= 0.10
     Davidson diagonalization with overlap
     ethr =  1.06E-06,  avg # of iterations =  4.0

     negative rho (up, down):  5.694E-03 7.444E-03

     total cpu time spent up to now is     4572.0 secs

     total energy              =   -9886.19249330 Ry
     estimated scf accuracy    <       0.01182692 Ry

     total magnetization       =     8.85 Bohr mag/cell
     absolute magnetization    =    10.09 Bohr mag/cell

     iteration # 26     ecut=    25.00 Ry     beta= 0.10
     Davidson diagonalization with overlap
     ethr =  1.06E-06,  avg # of iterations =  4.0

     negative rho (up, down):  5.470E-03 7.046E-03

     total cpu time spent up to now is     4754.7 secs

     total energy              =   -9886.19357770 Ry
     estimated scf accuracy    <       0.00597564 Ry

     total magnetization       =     8.39 Bohr mag/cell
     absolute magnetization    =     9.58 Bohr mag/cell

     iteration # 27     ecut=    25.00 Ry     beta= 0.10
     Davidson diagonalization with overlap
     ethr =  5.40E-07,  avg # of iterations =  1.5

     negative rho (up, down):  5.425E-03 6.747E-03

     total cpu time spent up to now is     4924.8 secs

     total energy              =   -9886.19461997 Ry
     estimated scf accuracy    <       0.00504247 Ry

     total magnetization       =     8.07 Bohr mag/cell
     absolute magnetization    =     9.21 Bohr mag/cell

     iteration # 28     ecut=    25.00 Ry     beta= 0.10
     Davidson diagonalization with overlap
     ethr =  4.56E-07,  avg # of iterations =  2.0

     negative rho (up, down):  5.504E-03 6.551E-03

     total cpu time spent up to now is     5112.1 secs

     total energy              =   -9886.19563470 Ry
     estimated scf accuracy    <       0.00492553 Ry

     total magnetization       =     7.68 Bohr mag/cell
     absolute magnetization    =     8.78 Bohr mag/cell

     iteration # 29     ecut=    25.00 Ry     beta= 0.10
     Davidson diagonalization with overlap
     ethr =  4.45E-07,  avg # of iterations =  2.0

     negative rho (up, down):  5.615E-03 6.449E-03

     total cpu time spent up to now is     5298.6 secs

     total energy              =   -9886.19660515 Ry
     estimated scf accuracy    <       0.00387867 Ry

     total magnetization       =     7.23 Bohr mag/cell
     absolute magnetization    =     8.29 Bohr mag/cell

     iteration # 30     ecut=    25.00 Ry     beta= 0.10
     Davidson diagonalization with overlap
     ethr =  3.50E-07,  avg # of iterations =  2.0

     negative rho (up, down):  5.748E-03 6.423E-03

     total cpu time spent up to now is     5486.6 secs

     total energy              =   -9886.19737707 Ry
     estimated scf accuracy    <       0.00334062 Ry

     total magnetization       =     6.84 Bohr mag/cell
     absolute magnetization    =     7.86 Bohr mag/cell

     iteration # 31     ecut=    25.00 Ry     beta= 0.10
     Davidson diagonalization with overlap
     ethr =  3.02E-07,  avg # of iterations =  1.0

     negative rho (up, down):  5.718E-03 6.392E-03

     total cpu time spent up to now is     5654.1 secs

     total energy              =   -9886.19790051 Ry
     estimated scf accuracy    <       0.00273950 Ry

     total magnetization       =     6.52 Bohr mag/cell
     absolute magnetization    =     7.49 Bohr mag/cell

     iteration # 32     ecut=    25.00 Ry     beta= 0.10
     Davidson diagonalization with overlap
     ethr =  2.47E-07,  avg # of iterations =  1.0

     negative rho (up, down):  5.881E-03 6.414E-03

     total cpu time spent up to now is     5821.3 secs

     total energy              =   -9886.19845614 Ry
     estimated scf accuracy    <       0.00273688 Ry

     total magnetization       =     6.26 Bohr mag/cell
     absolute magnetization    =     7.21 Bohr mag/cell

     iteration # 33     ecut=    25.00 Ry     beta= 0.10
     Davidson diagonalization with overlap
     ethr =  2.47E-07,  avg # of iterations =  1.0

     negative rho (up, down):  6.062E-03 6.471E-03

     total cpu time spent up to now is     5987.6 secs

     total energy              =   -9886.19894396 Ry
     estimated scf accuracy    <       0.00219628 Ry

     total magnetization       =     5.93 Bohr mag/cell
     absolute magnetization    =     6.85 Bohr mag/cell

     iteration # 34     ecut=    25.00 Ry     beta= 0.10
     Davidson diagonalization with overlap
     ethr =  1.98E-07,  avg # of iterations =  1.0

     negative rho (up, down):  5.994E-03 6.456E-03

     total cpu time spent up to now is     6142.2 secs

     total energy              =   -9886.19922881 Ry
     estimated scf accuracy    <       0.00197835 Ry

     total magnetization       =     5.66 Bohr mag/cell
     absolute magnetization    =     6.54 Bohr mag/cell

     iteration # 35     ecut=    25.00 Ry     beta= 0.10
     Davidson diagonalization with overlap
     ethr =  1.79E-07,  avg # of iterations =  1.0

     negative rho (up, down):  5.974E-03 6.453E-03

     total cpu time spent up to now is     6296.6 secs

     total energy              =   -9886.19948273 Ry
     estimated scf accuracy    <       0.00288987 Ry

     total magnetization       =     5.46 Bohr mag/cell
     absolute magnetization    =     6.33 Bohr mag/cell

     iteration # 36     ecut=    25.00 Ry     beta= 0.10
     Davidson diagonalization with overlap
     ethr =  1.79E-07,  avg # of iterations =  1.0

     negative rho (up, down):  5.959E-03 6.454E-03

     total cpu time spent up to now is     6451.9 secs

     total energy              =   -9886.19973456 Ry
     estimated scf accuracy    <       0.00133746 Ry

     total magnetization       =     5.28 Bohr mag/cell
     absolute magnetization    =     6.12 Bohr mag/cell

     iteration # 37     ecut=    25.00 Ry     beta= 0.10
     Davidson diagonalization with overlap
     ethr =  1.21E-07,  avg # of iterations =  1.0

     negative rho (up, down):  5.912E-03 6.438E-03

     total cpu time spent up to now is     6607.0 secs

     total energy              =   -9886.19996223 Ry
     estimated scf accuracy    <       0.00106204 Ry

     total magnetization       =     5.09 Bohr mag/cell
     absolute magnetization    =     5.91 Bohr mag/cell

     iteration # 38     ecut=    25.00 Ry     beta= 0.10
     Davidson diagonalization with overlap
     ethr =  9.59E-08,  avg # of iterations =  1.0

     negative rho (up, down):  5.811E-03 6.405E-03

     total cpu time spent up to now is     6762.5 secs

     total energy              =   -9886.20014249 Ry
     estimated scf accuracy    <       0.00098585 Ry

     total magnetization       =     4.87 Bohr mag/cell
     absolute magnetization    =     5.67 Bohr mag/cell

     iteration # 39     ecut=    25.00 Ry     beta= 0.10
     Davidson diagonalization with overlap
     ethr =  8.91E-08,  avg # of iterations =  2.0

     negative rho (up, down):  5.681E-03 6.352E-03

     total cpu time spent up to now is     6946.5 secs

     total energy              =   -9886.20029540 Ry
     estimated scf accuracy    <       0.00080806 Ry

     total magnetization       =     4.70 Bohr mag/cell
     absolute magnetization    =     5.48 Bohr mag/cell

     iteration # 40     ecut=    25.00 Ry     beta= 0.10
     Davidson diagonalization with overlap
     ethr =  7.30E-08,  avg # of iterations =  1.0

     negative rho (up, down):  5.585E-03 6.310E-03

     total cpu time spent up to now is     7107.6 secs

     total energy              =   -9886.20046224 Ry
     estimated scf accuracy    <       0.00072873 Ry

     total magnetization       =     4.56 Bohr mag/cell
     absolute magnetization    =     5.32 Bohr mag/cell

     iteration # 41     ecut=    25.00 Ry     beta= 0.10
     Davidson diagonalization with overlap
     ethr =  6.58E-08,  avg # of iterations =  1.0

     negative rho (up, down):  5.425E-03 6.233E-03

     total cpu time spent up to now is     7268.4 secs

     total energy              =   -9886.20055059 Ry
     estimated scf accuracy    <       0.00064428 Ry

     total magnetization       =     4.38 Bohr mag/cell
     absolute magnetization    =     5.12 Bohr mag/cell

     iteration # 42     ecut=    25.00 Ry     beta= 0.10
     Davidson diagonalization with overlap
     ethr =  5.82E-08,  avg # of iterations =  1.0

     negative rho (up, down):  5.328E-03 6.179E-03

     total cpu time spent up to now is     7429.2 secs

     total energy              =   -9886.20065550 Ry
     estimated scf accuracy    <       0.00063465 Ry

     total magnetization       =     4.32 Bohr mag/cell
     absolute magnetization    =     5.05 Bohr mag/cell

     iteration # 43     ecut=    25.00 Ry     beta= 0.10
     Davidson diagonalization with overlap
     ethr =  5.73E-08,  avg # of iterations =  1.0

     negative rho (up, down):  5.241E-03 6.125E-03

     total cpu time spent up to now is     7589.7 secs

     total energy              =   -9886.20076083 Ry
     estimated scf accuracy    <       0.00049410 Ry

     total magnetization       =     4.19 Bohr mag/cell
     absolute magnetization    =     4.91 Bohr mag/cell

     iteration # 44     ecut=    25.00 Ry     beta= 0.10
     Davidson diagonalization with overlap
     ethr =  4.46E-08,  avg # of iterations =  1.0

     negative rho (up, down):  5.149E-03 6.062E-03

     total cpu time spent up to now is     7750.2 secs

     total energy              =   -9886.20081026 Ry
     estimated scf accuracy    <       0.00044625 Ry

     total magnetization       =     4.07 Bohr mag/cell
     absolute magnetization    =     4.78 Bohr mag/cell

     iteration # 45     ecut=    25.00 Ry     beta= 0.10
     Davidson diagonalization with overlap
     ethr =  4.03E-08,  avg # of iterations =  1.0

     negative rho (up, down):  5.094E-03 6.015E-03

     total cpu time spent up to now is     7910.6 secs

     total energy              =   -9886.20086042 Ry
     estimated scf accuracy    <       0.00060998 Ry

     total magnetization       =     4.03 Bohr mag/cell
     absolute magnetization    =     4.73 Bohr mag/cell

     iteration # 46     ecut=    25.00 Ry     beta= 0.10
     Davidson diagonalization with overlap
     ethr =  4.03E-08,  avg # of iterations =  1.0

     negative rho (up, down):  5.052E-03 5.971E-03

     total cpu time spent up to now is     8070.8 secs

     total energy              =   -9886.20092265 Ry
     estimated scf accuracy    <       0.00037045 Ry

     total magnetization       =     3.96 Bohr mag/cell
     absolute magnetization    =     4.65 Bohr mag/cell

     iteration # 47     ecut=    25.00 Ry     beta= 0.10
     Davidson diagonalization with overlap
     ethr =  3.35E-08,  avg # of iterations =  1.0

     negative rho (up, down):  5.030E-03 5.937E-03

     total cpu time spent up to now is     8228.9 secs

     total energy              =   -9886.20097908 Ry
     estimated scf accuracy    <       0.00030345 Ry

     total magnetization       =     3.88 Bohr mag/cell
     absolute magnetization    =     4.56 Bohr mag/cell

     iteration # 48     ecut=    25.00 Ry     beta= 0.10
     Davidson diagonalization with overlap
     ethr =  2.74E-08,  avg # of iterations =  1.0

     negative rho (up, down):  5.022E-03 5.908E-03

     total cpu time spent up to now is     8386.7 secs

     total energy              =   -9886.20104139 Ry
     estimated scf accuracy    <       0.00028681 Ry

     total magnetization       =     3.80 Bohr mag/cell
     absolute magnetization    =     4.48 Bohr mag/cell

     iteration # 49     ecut=    25.00 Ry     beta= 0.10
     Davidson diagonalization with overlap
     ethr =  2.59E-08,  avg # of iterations =  1.0

     negative rho (up, down):  5.012E-03 5.880E-03

     total cpu time spent up to now is     8544.7 secs

     total energy              =   -9886.20108234 Ry
     estimated scf accuracy    <       0.00026690 Ry

     total magnetization       =     3.71 Bohr mag/cell
     absolute magnetization    =     4.38 Bohr mag/cell

     iteration # 50     ecut=    25.00 Ry     beta= 0.10
     Davidson diagonalization with overlap
     ethr =  2.41E-08,  avg # of iterations =  1.0

     negative rho (up, down):  5.019E-03 5.864E-03

     total cpu time spent up to now is     8702.2 secs

     total energy              =   -9886.20113561 Ry
     estimated scf accuracy    <       0.00025109 Ry

     total magnetization       =     3.66 Bohr mag/cell
     absolute magnetization    =     4.32 Bohr mag/cell

     iteration # 51     ecut=    25.00 Ry     beta= 0.10
     Davidson diagonalization with overlap
     ethr =  2.27E-08,  avg # of iterations =  1.0

     negative rho (up, down):  5.023E-03 5.847E-03

     total cpu time spent up to now is     8857.2 secs

     total energy              =   -9886.20117432 Ry
     estimated scf accuracy    <       0.00023336 Ry

     total magnetization       =     3.57 Bohr mag/cell
     absolute magnetization    =     4.23 Bohr mag/cell

     iteration # 52     ecut=    25.00 Ry     beta= 0.10
     Davidson diagonalization with overlap
     ethr =  2.11E-08,  avg # of iterations =  1.0

     negative rho (up, down):  5.037E-03 5.837E-03

     total cpu time spent up to now is     9012.2 secs

     total energy              =   -9886.20121553 Ry
     estimated scf accuracy    <       0.00024780 Ry

     total magnetization       =     3.51 Bohr mag/cell
     absolute magnetization    =     4.16 Bohr mag/cell

     iteration # 53     ecut=    25.00 Ry     beta= 0.10
     Davidson diagonalization with overlap
     ethr =  2.11E-08,  avg # of iterations =  1.0

     negative rho (up, down):  5.062E-03 5.835E-03

     total cpu time spent up to now is     9167.9 secs

     total energy              =   -9886.20126540 Ry
     estimated scf accuracy    <       0.00020927 Ry

     total magnetization       =     3.45 Bohr mag/cell
     absolute magnetization    =     4.09 Bohr mag/cell

     iteration # 54     ecut=    25.00 Ry     beta= 0.10
     Davidson diagonalization with overlap
     ethr =  1.89E-08,  avg # of iterations =  1.0

     negative rho (up, down):  5.079E-03 5.830E-03

     total cpu time spent up to now is     9323.1 secs

     total energy              =   -9886.20130966 Ry
     estimated scf accuracy    <       0.00018584 Ry

     total magnetization       =     3.36 Bohr mag/cell
     absolute magnetization    =     4.00 Bohr mag/cell

     iteration # 55     ecut=    25.00 Ry     beta= 0.10
     Davidson diagonalization with overlap
     ethr =  1.68E-08,  avg # of iterations =  1.0

     negative rho (up, down):  5.085E-03 5.819E-03

     total cpu time spent up to now is     9478.4 secs

     total energy              =   -9886.20133690 Ry
     estimated scf accuracy    <       0.00026201 Ry

     total magnetization       =     3.28 Bohr mag/cell
     absolute magnetization    =     3.91 Bohr mag/cell

     iteration # 56     ecut=    25.00 Ry     beta= 0.10
     Davidson diagonalization with overlap
     ethr =  1.68E-08,  avg # of iterations =  1.0

     negative rho (up, down):  5.114E-03 5.824E-03

     total cpu time spent up to now is     9634.0 secs

     total energy              =   -9886.20138232 Ry
     estimated scf accuracy    <       0.00019708 Ry

     total magnetization       =     3.24 Bohr mag/cell
     absolute magnetization    =     3.86 Bohr mag/cell

     iteration # 57     ecut=    25.00 Ry     beta= 0.10
     Davidson diagonalization with overlap
     ethr =  1.68E-08,  avg # of iterations =  1.0

     negative rho (up, down):  5.134E-03 5.826E-03

     total cpu time spent up to now is     9789.3 secs

     total energy              =   -9886.20142654 Ry
     estimated scf accuracy    <       0.00015421 Ry

     total magnetization       =     3.14 Bohr mag/cell
     absolute magnetization    =     3.76 Bohr mag/cell

     iteration # 58     ecut=    25.00 Ry     beta= 0.10
     Davidson diagonalization with overlap
     ethr =  1.39E-08,  avg # of iterations =  1.0

     negative rho (up, down):  5.156E-03 5.829E-03

     total cpu time spent up to now is     9945.0 secs

     total energy              =   -9886.20147185 Ry
     estimated scf accuracy    <       0.00014193 Ry

     total magnetization       =     3.06 Bohr mag/cell
     absolute magnetization    =     3.67 Bohr mag/cell

     iteration # 59     ecut=    25.00 Ry     beta= 0.10
     Davidson diagonalization with overlap
     ethr =  1.28E-08,  avg # of iterations =  1.0

     negative rho (up, down):  5.159E-03 5.818E-03

     total cpu time spent up to now is    10101.0 secs

     total energy              =   -9886.20150514 Ry
     estimated scf accuracy    <       0.00012486 Ry

     total magnetization       =     2.96 Bohr mag/cell
     absolute magnetization    =     3.56 Bohr mag/cell

     iteration # 60     ecut=    25.00 Ry     beta= 0.10
     Davidson diagonalization with overlap
     ethr =  1.13E-08,  avg # of iterations =  1.0

     negative rho (up, down):  5.167E-03 5.812E-03

     total cpu time spent up to now is    10256.8 secs

     total energy              =   -9886.20153942 Ry
     estimated scf accuracy    <       0.00012184 Ry

     total magnetization       =     2.89 Bohr mag/cell
     absolute magnetization    =     3.49 Bohr mag/cell

     iteration # 61     ecut=    25.00 Ry     beta= 0.10
     Davidson diagonalization with overlap
     ethr =  1.10E-08,  avg # of iterations =  1.0

     negative rho (up, down):  5.163E-03 5.796E-03

     total cpu time spent up to now is    10412.8 secs

     total energy              =   -9886.20156661 Ry
     estimated scf accuracy    <       0.00011395 Ry

     total magnetization       =     2.81 Bohr mag/cell
     absolute magnetization    =     3.40 Bohr mag/cell

     iteration # 62     ecut=    25.00 Ry     beta= 0.10
     Davidson diagonalization with overlap
     ethr =  1.03E-08,  avg # of iterations =  1.0

     negative rho (up, down):  5.161E-03 5.782E-03

     total cpu time spent up to now is    10568.3 secs

     total energy              =   -9886.20159439 Ry
     estimated scf accuracy    <       0.00011767 Ry

     total magnetization       =     2.75 Bohr mag/cell
     absolute magnetization    =     3.34 Bohr mag/cell

     iteration # 63     ecut=    25.00 Ry     beta= 0.10
     Davidson diagonalization with overlap
     ethr =  1.03E-08,  avg # of iterations =  1.0

     negative rho (up, down):  5.160E-03 5.769E-03

     total cpu time spent up to now is    10723.8 secs

     total energy              =   -9886.20162399 Ry
     estimated scf accuracy    <       0.00010297 Ry

     total magnetization       =     2.68 Bohr mag/cell
     absolute magnetization    =     3.26 Bohr mag/cell

     iteration # 64     ecut=    25.00 Ry     beta= 0.10
     Davidson diagonalization with overlap
     ethr =  9.30E-09,  avg # of iterations =  1.0

     negative rho (up, down):  5.149E-03 5.603E-03

     Magnetic moment per site:
     atom:    1    charge:    1.0898    magn:    0.0076    constr:    0.0000
     atom:    2    charge:    1.0918    magn:    0.0107    constr:    0.0000
     atom:    3    charge:    8.2690    magn:    0.0160    constr:    0.0000
     atom:    4    charge:    8.2216    magn:    0.0525    constr:    0.0000
     atom:    5    charge:    8.2248    magn:    0.0504    constr:    0.0000
     atom:    6    charge:    8.2764    magn:    0.0021    constr:    0.0000
     atom:    7    charge:    1.0986    magn:    0.0031    constr:    0.0000
     atom:    8    charge:    1.0976    magn:    0.0054    constr:    0.0000
     atom:    9    charge:    1.1054    magn:    0.0008    constr:    0.0000
     atom:   10    charge:    1.1051    magn:   -0.0013    constr:    0.0000
     atom:   11    charge:    8.2423    magn:    0.0096    constr:    0.0000
     atom:   12    charge:    8.2434    magn:   -0.0003    constr:    0.0000
     atom:   13    charge:    8.2417    magn:   -0.0104    constr:    0.0000
     atom:   14    charge:    8.2419    magn:    0.0109    constr:    0.0000
     atom:   15    charge:    1.1003    magn:   -0.0001    constr:    0.0000
     atom:   16    charge:    1.0923    magn:    0.0003    constr:    0.0000
     atom:   17    charge:    1.0977    magn:    0.0010    constr:    0.0000
     atom:   18    charge:    1.0957    magn:    0.0008    constr:    0.0000
     atom:   19    charge:    8.2419    magn:   -0.0007    constr:    0.0000
     atom:   20    charge:    8.2401    magn:   -0.0005    constr:    0.0000
     atom:   21    charge:    8.2406    magn:   -0.0020    constr:    0.0000
     atom:   22    charge:    8.2426    magn:    0.0012    constr:    0.0000
     atom:   23    charge:    1.0969    magn:    0.0015    constr:    0.0000
     atom:   24    charge:    1.0981    magn:    0.0001    constr:    0.0000
     atom:   25    charge:    1.0981    magn:    0.0054    constr:    0.0000
     atom:   26    charge:    1.1005    magn:    0.0046    constr:    0.0000
     atom:   27    charge:    8.2664    magn:    0.0319    constr:    0.0000
     atom:   28    charge:    8.2216    magn:    0.0741    constr:    0.0000
     atom:   29    charge:    8.2215    magn:    0.0893    constr:    0.0000
     atom:   30    charge:    8.2672    magn:    0.0201    constr:    0.0000
     atom:   31    charge:    1.0922    magn:    0.0152    constr:    0.0000
     atom:   32    charge:    1.0955    magn:    0.0129    constr:    0.0000
     atom:   33    charge:    1.0960    magn:    0.0081    constr:    0.0000
     atom:   34    charge:    1.0906    magn:    0.0075    constr:    0.0000
     atom:   35    charge:    8.2675    magn:    0.0141    constr:    0.0000
     atom:   36    charge:    8.2435    magn:    0.1150    constr:    0.0000
     atom:   37    charge:    8.2226    magn:    0.0554    constr:    0.0000
     atom:   38    charge:    8.2683    magn:    0.0172    constr:    0.0000
     atom:   39    charge:    1.0996    magn:    0.0043    constr:    0.0000
     atom:   40    charge:    1.1020    magn:    0.0027    constr:    0.0000
     atom:   41    charge:    1.1030    magn:   -0.0006    constr:    0.0000
     atom:   42    charge:    1.1055    magn:   -0.0010    constr:    0.0000
     atom:   43    charge:    8.2405    magn:    0.0141    constr:    0.0000
     atom:   44    charge:    8.2418    magn:   -0.0066    constr:    0.0000
     atom:   45    charge:    8.2432    magn:   -0.0006    constr:    0.0000
     atom:   46    charge:    8.2407    magn:    0.0014    constr:    0.0000
     atom:   47    charge:    1.0962    magn:    0.0003    constr:    0.0000
     atom:   48    charge:    1.0983    magn:    0.0005    constr:    0.0000
     atom:   49    charge:    1.0993    magn:    0.0008    constr:    0.0000
     atom:   50    charge:    1.1017    magn:   -0.0001    constr:    0.0000
     atom:   51    charge:    8.2427    magn:    0.0004    constr:    0.0000
     atom:   52    charge:    8.2408    magn:   -0.0044    constr:    0.0000
     atom:   53    charge:    8.2402    magn:   -0.0011    constr:    0.0000
     atom:   54    charge:    8.2415    magn:   -0.0031    constr:    0.0000
     atom:   55    charge:    1.0928    magn:    0.0007    constr:    0.0000
     atom:   56    charge:    1.0903    magn:    0.0028    constr:    0.0000
     atom:   57    charge:    1.0988    magn:    0.0042    constr:    0.0000
     atom:   58    charge:    1.0991    magn:    0.0045    constr:    0.0000
     atom:   59    charge:    8.2646    magn:    0.0231    constr:    0.0000
     atom:   60    charge:    8.2197    magn:    0.0757    constr:    0.0000
     atom:   61    charge:    8.2198    magn:    0.0751    constr:    0.0000
     atom:   62    charge:    8.2642    magn:    0.0326    constr:    0.0000
     atom:   63    charge:    1.0955    magn:    0.0121    constr:    0.0000
     atom:   64    charge:    1.0985    magn:    0.0132    constr:    0.0000
     atom:   65    charge:    1.0926    magn:    0.0072    constr:    0.0000
     atom:   66    charge:    1.1001    magn:    0.0030    constr:    0.0000
     atom:   67    charge:    8.2675    magn:    0.0243    constr:    0.0000
     atom:   68    charge:    8.2245    magn:    0.0649    constr:    0.0000
     atom:   69    charge:    8.2312    magn:    0.0304    constr:    0.0000
     atom:   70    charge:    8.2691    magn:    0.0226    constr:    0.0000
     atom:   71    charge:    1.0990    magn:    0.0037    constr:    0.0000
     atom:   72    charge:    1.0972    magn:    0.0033    constr:    0.0000
     atom:   73    charge:    1.1053    magn:    0.0006    constr:    0.0000
     atom:   74    charge:    1.1051    magn:    0.0006    constr:    0.0000
     atom:   75    charge:    8.2425    magn:    0.0195    constr:    0.0000
     atom:   76    charge:    8.2418    magn:   -0.0090    constr:    0.0000
     atom:   77    charge:    8.2428    magn:   -0.0164    constr:    0.0000
     atom:   78    charge:    8.2424    magn:    0.0268    constr:    0.0000
     atom:   79    charge:    1.1004    magn:    0.0004    constr:    0.0000
     atom:   80    charge:    1.0924    magn:    0.0003    constr:    0.0000
     atom:   81    charge:    1.0977    magn:    0.0013    constr:    0.0000
     atom:   82    charge:    1.0958    magn:    0.0018    constr:    0.0000
     atom:   83    charge:    8.2418    magn:   -0.0010    constr:    0.0000
     atom:   84    charge:    8.2400    magn:   -0.0001    constr:    0.0000
     atom:   85    charge:    8.2403    magn:   -0.0044    constr:    0.0000
     atom:   86    charge:    8.2425    magn:   -0.0032    constr:    0.0000
     atom:   87    charge:    1.0970    magn:    0.0008    constr:    0.0000
     atom:   88    charge:    1.0981    magn:    0.0015    constr:    0.0000
     atom:   89    charge:    1.0981    magn:    0.0040    constr:    0.0000
     atom:   90    charge:    1.1005    magn:    0.0040    constr:    0.0000
     atom:   91    charge:    8.2668    magn:    0.0229    constr:    0.0000
     atom:   92    charge:    8.2210    magn:    0.0901    constr:    0.0000
     atom:   93    charge:    8.2219    magn:    0.0695    constr:    0.0000
     atom:   94    charge:    8.2670    magn:    0.0306    constr:    0.0000
     atom:   95    charge:    1.0923    magn:    0.0117    constr:    0.0000
     atom:   96    charge:    1.0955    magn:    0.0125    constr:    0.0000
     atom:   97    charge:    1.0961    magn:    0.0134    constr:    0.0000
     atom:   98    charge:    1.0908    magn:    0.0127    constr:    0.0000
     atom:   99    charge:    8.2895    magn:   -0.0060    constr:    0.0000
     atom:  100    charge:    8.2316    magn:    0.0516    constr:    0.0000
     atom:  101    charge:    8.2497    magn:    0.1078    constr:    0.0000
     atom:  102    charge:    8.2720    magn:    0.0143    constr:    0.0000
     atom:  103    charge:    1.1098    magn:    0.0048    constr:    0.0000
     atom:  104    charge:    1.1021    magn:    0.0060    constr:    0.0000
     atom:  105    charge:    1.1035    magn:   -0.0007    constr:    0.0000
     atom:  106    charge:    1.1058    magn:   -0.0005    constr:    0.0000
     atom:  107    charge:    8.2683    magn:    0.0328    constr:    0.0000
     atom:  108    charge:    8.2423    magn:   -0.0159    constr:    0.0000
     atom:  109    charge:    8.2430    magn:   -0.0062    constr:    0.0000
     atom:  110    charge:    8.2420    magn:    0.0087    constr:    0.0000
     atom:  111    charge:    1.0968    magn:    0.0023    constr:    0.0000
     atom:  112    charge:    1.0980    magn:    0.0003    constr:    0.0000
     atom:  113    charge:    1.0994    magn:    0.0036    constr:    0.0000
     atom:  114    charge:    1.1017    magn:    0.0006    constr:    0.0000
     atom:  115    charge:    8.2418    magn:    0.0212    constr:    0.0000
     atom:  116    charge:    8.2402    magn:   -0.0040    constr:    0.0000
     atom:  117    charge:    8.2402    magn:   -0.0032    constr:    0.0000
     atom:  118    charge:    8.2420    magn:    0.0005    constr:    0.0000
     atom:  119    charge:    1.0928    magn:    0.0003    constr:    0.0000
     atom:  120    charge:    1.0903    magn:   -0.0000    constr:    0.0000
     atom:  121    charge:    1.0989    magn:    0.0057    constr:    0.0000
     atom:  122    charge:    1.0991    magn:    0.0046    constr:    0.0000
     atom:  123    charge:    8.2655    magn:    0.0233    constr:    0.0000
     atom:  124    charge:    8.2195    magn:    0.0715    constr:    0.0000
     atom:  125    charge:    8.2198    magn:    0.0751    constr:    0.0000
     atom:  126    charge:    8.2650    magn:    0.0186    constr:    0.0000
     atom:  127    charge:    1.0955    magn:    0.0125    constr:    0.0000
     atom:  128    charge:    1.0985    magn:    0.0126    constr:    0.0000
     atom:  129    charge:    2.1102    magn:    0.0012    constr:    0.0000
     atom:  130    charge:    0.3864    magn:    0.0000    constr:    0.0000
     atom:  131    charge:    0.2164    magn:    0.0000    constr:    0.0000
     atom:  132    charge:    2.0673    magn:   -0.0017    constr:    0.0000
     atom:  133    charge:    1.1472    magn:    0.0005    constr:    0.0000
     atom:  134    charge:    0.1813    magn:    0.0002    constr:    0.0000

     total cpu time spent up to now is    10878.7 secs

     End of self-consistent calculation

 ------ SPIN UP ------------


          k = 0.0000 0.0000 0.0000 ( 28994 PWs)   bands (ev):

   -24.7077 -21.4919 -21.1159 -19.9838 -19.6843 -19.6445 -19.6403 -19.6303
   -19.6212 -19.6013 -19.5899 -19.4531 -19.4236 -19.3264 -19.3215 -19.3201
   -19.3092 -19.2586 -19.2511 -19.2091 -19.1544 -19.1391 -19.1303 -19.1193
   -19.1133 -19.1038 -19.0932 -19.0279 -19.0099 -18.9985 -18.9908 -18.9877
   -18.8982 -18.8699 -18.8478 -18.8267 -18.8196 -18.8140 -18.8086 -18.7969
   -18.7465 -18.7402 -18.6914 -18.6649 -18.6600 -18.6552 -18.6444 -18.6368
   -18.5915 -18.5648 -18.5120 -18.3290 -18.2180 -18.1949 -18.1665 -18.1473
   -18.0681 -18.0278 -17.9641 -17.9343 -17.8198 -17.8155 -17.8089 -17.8086
   -17.6648 -17.6490 -11.1339 -10.2169  -9.4189  -8.5370  -8.1385  -7.7347
    -7.4637  -7.4531  -7.4365  -7.4321  -7.3866  -7.3335  -7.3099  -7.2868
    -7.2072  -7.0927  -7.0651  -7.0483  -7.0150  -6.9641  -6.9502  -6.9383
    -6.9328  -6.9252  -6.8697  -6.8347  -6.7947  -6.7364  -6.6883  -6.6878
    -6.6718  -6.6650  -6.6470  -6.5960  -6.5679  -6.5649  -6.5539  -6.5408
    -6.5309  -6.5114  -6.4777  -6.4303  -6.3988  -6.3840  -6.3527  -6.3382
    -6.3093  -6.2665  -6.2434  -6.1982  -6.1747  -6.1519  -6.1449  -6.1252
    -6.1129  -6.1010  -6.0576  -6.0215  -6.0121  -6.0018  -5.9989  -5.9809
    -5.9725  -5.9680  -5.9587  -5.9515  -5.9421  -5.9366  -5.9095  -5.8846
    -5.8709  -5.8512  -5.8321  -5.8044  -5.7950  -5.7908  -5.7657  -5.7598
    -5.7506  -5.7469  -5.7421  -5.7339  -5.7304  -5.7241  -5.7063  -5.6996
    -5.6877  -5.6678  -5.6633  -5.6562  -5.6411  -5.6084  -5.5880  -5.5865
    -5.5852  -5.5777  -5.5717  -5.5590  -5.5575  -5.5451  -5.5374  -5.5189
    -5.4877  -5.4752  -5.4696  -5.4660  -5.4427  -5.4404  -5.4193  -5.4152
    -5.4074  -5.3903  -5.3816  -5.3780  -5.3730  -5.3593  -5.3505  -5.3265
    -5.3066  -5.2953  -5.2836  -5.2801  -5.2364  -5.1991  -5.1639  -5.1610
    -5.1364  -5.1189  -5.0599  -5.0437  -5.0173  -5.0103  -4.9931  -4.9776
    -4.9729  -4.9705  -4.9071  -4.8269  -4.8063  -4.8006  -4.7971  -4.7887
    -4.7821  -4.7338  -4.6862  -4.6630  -4.6387  -4.6228  -4.6132  -4.6102
    -4.6036  -4.5685  -4.5521  -4.5343  -4.5093  -4.5010  -4.4706  -4.4219
    -4.3533  -4.3318  -4.3252  -4.3206  -4.2773  -4.2257  -4.2031  -4.1800
    -4.1682  -4.1599  -4.1479  -4.1393  -4.1172  -4.0343  -3.9635  -3.9502
    -3.9428  -3.9369  -3.8828  -3.8776  -3.8686  -3.8655  -3.8399  -3.8122
    -3.7983  -3.7890  -3.7233  -3.7212  -3.6668  -3.6519  -3.6401  -3.5949
    -3.5810  -3.5639  -3.5588  -3.5533  -3.5508  -3.5463  -3.5179  -3.4789
    -3.4324  -3.4275  -3.3987  -3.3920  -3.3876  -3.3823  -3.3787  -3.3619
    -3.3491  -3.3397  -3.3256  -3.2482  -3.2310  -3.2183  -3.1799  -3.1680
    -3.1597  -3.1402  -3.1341  -3.1325  -3.1276  -3.1144  -3.1124  -3.1073
    -3.1052  -3.0889  -3.0873  -3.0796  -3.0746  -3.0679  -3.0643  -3.0594
    -3.0562  -3.0539  -3.0494  -3.0456  -3.0385  -3.0325  -3.0215  -3.0118
    -3.0048  -3.0017  -2.9991  -2.9960  -2.9846  -2.9801  -2.9765  -2.9649
    -2.9548  -2.9477  -2.9428  -2.9395  -2.9365  -2.9325  -2.9279  -2.9213
    -2.9196  -2.9153  -2.9076  -2.9073  -2.8982  -2.8967  -2.8962  -2.8847
    -2.8817  -2.8782  -2.8744  -2.8690  -2.8654  -2.8585  -2.8561  -2.8456
    -2.8414  -2.8369  -2.8332  -2.8296  -2.8227  -2.8190  -2.8124  -2.8089
    -2.8034  -2.8010  -2.7966  -2.7949  -2.7899  -2.7846  -2.7801  -2.7767
    -2.7740  -2.7692  -2.7661  -2.7645  -2.7618  -2.7578  -2.7553  -2.7515
    -2.7469  -2.7443  -2.7346  -2.7280  -2.7237  -2.7169  -2.7122  -2.7109
    -2.7055  -2.6987  -2.6968  -2.6916  -2.6890  -2.6819  -2.6787  -2.6697
    -2.6686  -2.6553  -2.6500  -2.6451  -2.6354  -2.6322  -2.6286  -2.6266
    -2.6199  -2.6156  -2.6056  -2.5985  -2.5912  -2.5873  -2.5794  -2.5752
    -2.5678  -2.5645  -2.5604  -2.5572  -2.5546  -2.5463  -2.5451  -2.5389
    -2.5317  -2.5262  -2.5027  -2.4959  -2.4834  -2.4791  -2.4643  -2.4589
    -2.4552  -2.4502  -2.4412  -2.4376  -2.4266  -2.4251  -2.4196  -2.4142
    -2.4109  -2.4005  -2.3935  -2.3887  -2.3835  -2.3828  -2.3773  -2.3747
    -2.3711  -2.3683  -2.3660  -2.3635  -2.3553  -2.3505  -2.3472  -2.3349
    -2.3252  -2.3198  -2.3164  -2.3072  -2.2946  -2.2928  -2.2851  -2.2819
    -2.2796  -2.2736  -2.2664  -2.2614  -2.2519  -2.2470  -2.2436  -2.2385
    -2.2282  -2.2158  -2.2090  -2.1991  -2.1962  -2.1910  -2.1886  -2.1756
    -2.1701  -2.1618  -2.1614  -2.1470  -2.1409  -2.1359  -2.1303  -2.1175
    -2.1098  -2.1015  -2.0958  -2.0920  -2.0879  -2.0837  -2.0807  -2.0784
    -2.0641  -2.0561  -2.0394  -2.0370  -2.0283  -2.0213  -2.0199  -2.0144
    -2.0091  -2.0066  -2.0012  -1.9897  -1.9861  -1.9723  -1.9466  -1.9366
    -1.9254  -1.9153  -1.9101  -1.9069  -1.8448  -1.8273  -1.8207  -1.8125
    -1.8082  -1.8036  -1.8029  -1.7718  -1.7102  -1.6598  -1.6437  -1.6344
    -1.6156  -1.6017  -1.5571  -1.5335  -1.5293  -1.5211  -1.5197  -1.5102
    -1.4817  -1.4716  -1.4392  -1.4317  -1.4162  -1.4142  -1.3996  -1.3843
    -1.3484  -1.3266  -1.0240  -1.0167  -0.9891  -0.9752  -0.9643  -0.9600
    -0.9543  -0.9316  -0.9180  -0.9089  -0.8741  -0.8621  -0.8513  -0.8209
    -0.8118  -0.8054  -0.8016  -0.7800  -0.7444  -0.6789  -0.5848  -0.5700
    -0.5664  -0.5545  -0.5422  -0.5351  -0.4725  -0.4667  -0.4620  -0.4551
    -0.4290  -0.3892  -0.3721  -0.3051  -0.2920  -0.2701  -0.2450  -0.2387
    -0.2154  -0.1908  -0.1419  -0.1075  -0.0716  -0.0638  -0.0367  -0.0211
    -0.0067   0.0317   0.0868   0.1034   0.1655   0.1753   0.1900   0.2327
     0.2412   0.2497   0.2782   0.3220   0.3267   0.3655   0.5110   0.5258
     0.6230   1.2023   1.3962   1.6724   1.8781   2.3808   2.5423   2.6056
     2.7032   2.7989   2.8046   2.8966   2.8985   2.9216   3.0520   3.1661
     3.1879   3.2579   3.2911   3.3501   3.4155   3.4706   3.5651   3.6117
     3.6382   3.6492   3.6874   3.7205   3.7588   3.8245   3.8711   3.8896
     3.9642   4.0324   4.0795   4.1138   4.1253   4.1712   4.2455   4.2789
     4.3025   4.4309   4.4872   4.5071   4.5223   4.5447   4.5901   4.6240
     4.7370   4.8214   4.8412   4.8754   4.9086   4.9281   5.0149   5.0332
     5.0501   5.0888   5.1136   5.1182   5.2170   5.2704   5.3152   5.3520
     5.3789   5.3964   5.4105   5.4245   5.4389   5.4996   5.5041   5.5437
     5.5546   5.5585   5.5721   5.5774   5.6104   5.6492   5.7675   5.8260
     5.8668

 ------ SPIN DOWN ----------


          k = 0.0000 0.0000 0.0000 ( 28994 PWs)   bands (ev):

   -24.7054 -21.4617 -21.1127 -19.9762 -19.6784 -19.6377 -19.6330 -19.6223
   -19.6093 -19.5906 -19.5757 -19.4342 -19.4132 -19.3108 -19.3057 -19.3022
   -19.2925 -19.2408 -19.2318 -19.1880 -19.1332 -19.1265 -19.1172 -19.1041
   -19.0966 -19.0894 -19.0757 -19.0071 -18.9884 -18.9825 -18.9686 -18.9672
   -18.8824 -18.8566 -18.8330 -18.8142 -18.8059 -18.7936 -18.7915 -18.7781
   -18.7325 -18.7267 -18.6771 -18.6533 -18.6511 -18.6458 -18.6298 -18.6174
   -18.5768 -18.5479 -18.4952 -18.2490 -18.1588 -18.1272 -18.0906 -18.0829
   -18.0023 -17.9519 -17.8712 -17.8393 -17.7221 -17.7176 -17.7124 -17.7104
   -17.5646 -17.5466 -11.1338 -10.2146  -9.4021  -8.5293  -8.1309  -7.7120
    -7.4523  -7.4420  -7.4301  -7.4245  -7.3825  -7.3238  -7.2970  -7.2785
    -7.1941  -7.0819  -7.0639  -7.0238  -6.9986  -6.9621  -6.9383  -6.9254
    -6.9202  -6.9102  -6.8509  -6.8180  -6.7782  -6.7149  -6.6739  -6.6691
    -6.6563  -6.6510  -6.6301  -6.5783  -6.5556  -6.5509  -6.5388  -6.5254
    -6.5153  -6.4958  -6.4616  -6.4124  -6.3820  -6.3699  -6.3354  -6.3208
    -6.2943  -6.2434  -6.2253  -6.1804  -6.1615  -6.1419  -6.1299  -6.1126
    -6.1020  -6.0833  -6.0382  -6.0071  -6.0022  -5.9889  -5.9837  -5.9662
    -5.9574  -5.9534  -5.9425  -5.9399  -5.9328  -5.9156  -5.8940  -5.8651
    -5.8586  -5.8364  -5.8201  -5.8085  -5.7908  -5.7658  -5.7477  -5.7438
    -5.7372  -5.7366  -5.7316  -5.7274  -5.7081  -5.7038  -5.6792  -5.6720
    -5.6626  -5.6559  -5.6465  -5.6366  -5.6189  -5.5877  -5.5754  -5.5729
    -5.5688  -5.5615  -5.5505  -5.5411  -5.5369  -5.5248  -5.5128  -5.5050
    -5.4622  -5.4443  -5.4334  -5.4148  -5.4023  -5.3978  -5.3862  -5.3837
    -5.3802  -5.3546  -5.3497  -5.3430  -5.3289  -5.3104  -5.3033  -5.2946
    -5.2846  -5.2664  -5.2563  -5.2505  -5.1967  -5.1625  -5.1385  -5.1329
    -5.1142  -5.0937  -5.0307  -5.0107  -4.9718  -4.9643  -4.9555  -4.9386
    -4.9343  -4.9336  -4.8750  -4.8006  -4.7807  -4.7755  -4.7707  -4.7635
    -4.7528  -4.7039  -4.6703  -4.6320  -4.6111  -4.5914  -4.5817  -4.5780
    -4.5741  -4.5431  -4.5276  -4.4907  -4.4838  -4.4542  -4.4415  -4.3873
    -4.3275  -4.3078  -4.3018  -4.2994  -4.2550  -4.2195  -4.1678  -4.1510
    -4.1309  -4.1216  -4.1126  -4.1066  -4.1011  -3.9878  -3.9183  -3.9012
    -3.8902  -3.8859  -3.8792  -3.8365  -3.8284  -3.8246  -3.8013  -3.7800
    -3.7573  -3.7430  -3.7093  -3.6843  -3.6336  -3.6193  -3.5868  -3.5626
    -3.5464  -3.5324  -3.5213  -3.5165  -3.5091  -3.5005  -3.4955  -3.4624
    -3.4193  -3.4077  -3.3793  -3.3727  -3.3696  -3.3610  -3.3588  -3.3362
    -3.3283  -3.3256  -3.3020  -3.2434  -3.2092  -3.1942  -3.1577  -3.1468
    -3.1333  -3.1283  -3.1228  -3.1194  -3.1134  -3.0931  -3.0913  -3.0872
    -3.0801  -3.0695  -3.0678  -3.0613  -3.0598  -3.0532  -3.0471  -3.0409
    -3.0342  -3.0331  -3.0293  -3.0222  -3.0179  -3.0144  -3.0016  -2.9955
    -2.9874  -2.9859  -2.9782  -2.9683  -2.9623  -2.9598  -2.9566  -2.9423
    -2.9399  -2.9321  -2.9203  -2.9181  -2.9157  -2.9085  -2.9044  -2.9001
    -2.8970  -2.8932  -2.8915  -2.8891  -2.8856  -2.8760  -2.8746  -2.8709
    -2.8662  -2.8634  -2.8585  -2.8530  -2.8475  -2.8396  -2.8311  -2.8200
    -2.8140  -2.8124  -2.8068  -2.8063  -2.8045  -2.8015  -2.7976  -2.7870
    -2.7826  -2.7748  -2.7675  -2.7648  -2.7603  -2.7592  -2.7520  -2.7471
    -2.7465  -2.7451  -2.7412  -2.7385  -2.7317  -2.7288  -2.7286  -2.7224
    -2.7132  -2.7053  -2.7032  -2.7003  -2.6987  -2.6939  -2.6884  -2.6852
    -2.6813  -2.6750  -2.6738  -2.6706  -2.6670  -2.6596  -2.6563  -2.6451
    -2.6426  -2.6289  -2.6245  -2.6152  -2.6091  -2.6061  -2.6010  -2.5953
    -2.5875  -2.5830  -2.5752  -2.5716  -2.5683  -2.5601  -2.5545  -2.5518
    -2.5426  -2.5400  -2.5379  -2.5348  -2.5325  -2.5232  -2.5157  -2.5114
    -2.5003  -2.4989  -2.4810  -2.4747  -2.4614  -2.4539  -2.4440  -2.4378
    -2.4232  -2.4196  -2.4143  -2.4014  -2.3968  -2.3964  -2.3896  -2.3857
    -2.3800  -2.3733  -2.3685  -2.3611  -2.3606  -2.3530  -2.3519  -2.3473
    -2.3434  -2.3383  -2.3345  -2.3305  -2.3270  -2.3205  -2.3147  -2.3063
    -2.2995  -2.2952  -2.2916  -2.2801  -2.2760  -2.2712  -2.2650  -2.2599
    -2.2559  -2.2521  -2.2497  -2.2394  -2.2236  -2.2173  -2.2155  -2.2110
    -2.2086  -2.1891  -2.1828  -2.1747  -2.1728  -2.1599  -2.1575  -2.1532
    -2.1467  -2.1327  -2.1181  -2.1129  -2.1100  -2.1053  -2.0977  -2.0901
    -2.0821  -2.0766  -2.0684  -2.0635  -2.0604  -2.0538  -2.0528  -2.0465
    -2.0339  -2.0296  -2.0080  -2.0053  -2.0039  -1.9956  -1.9905  -1.9843
    -1.9802  -1.9762  -1.9706  -1.9655  -1.9484  -1.9435  -1.9100  -1.9078
    -1.9059  -1.8989  -1.8920  -1.8742  -1.8269  -1.8098  -1.8013  -1.7935
    -1.7885  -1.7830  -1.7812  -1.7559  -1.6891  -1.6342  -1.6073  -1.6043
    -1.5763  -1.5615  -1.4826  -1.4630  -1.4619  -1.4598  -1.4540  -1.4512
    -1.4252  -1.4222  -1.4075  -1.3980  -1.3918  -1.3660  -1.3579  -1.3340
    -1.3069  -1.3048  -1.0032  -1.0009  -0.9631  -0.9513  -0.9445  -0.9362
    -0.9219  -0.9015  -0.8972  -0.8884  -0.8552  -0.8490  -0.8319  -0.7853
    -0.7791  -0.7729  -0.7684  -0.7506  -0.7199  -0.6331  -0.5309  -0.5161
    -0.5099  -0.4997  -0.4843  -0.4807  -0.4338  -0.3975  -0.3781  -0.3717
    -0.3419  -0.3161  -0.3133  -0.2672  -0.2338  -0.2117  -0.1926  -0.1864
    -0.1725  -0.1454  -0.0975  -0.0655  -0.0482  -0.0253  -0.0118   0.0137
     0.0338   0.0700   0.1328   0.1438   0.1864   0.1916   0.2100   0.2501
     0.2527   0.2630   0.3532   0.3629   0.3799   0.4312   0.6118   0.6216
     0.6483   1.2224   1.4067   1.6848   1.8787   2.3816   2.5581   2.6288
     2.7137   2.8217   2.8278   2.9205   2.9228   2.9365   3.0669   3.1837
     3.2034   3.2678   3.3054   3.3530   3.4179   3.4790   3.5724   3.6156
     3.6398   3.6564   3.6949   3.7273   3.7662   3.8320   3.8809   3.8988
     3.9666   4.0424   4.0896   4.1247   4.1344   4.1792   4.2494   4.2873
     4.3058   4.4296   4.4973   4.5159   4.5313   4.5532   4.5973   4.6317
     4.7357   4.8278   4.8470   4.8809   4.9137   4.9337   5.0185   5.0345
     5.0546   5.0940   5.1202   5.1236   5.2214   5.2724   5.3180   5.3539
     5.3791   5.3976   5.4123   5.4268   5.4377   5.5007   5.5152   5.5472
     5.5614   5.5625   5.5783   5.5835   5.6135   5.6535   5.7651   5.8240
     5.8605

     the Fermi energy is    -0.3470 ev

!    total energy              =   -9886.20166514 Ry
     estimated scf accuracy    <       0.00008179 Ry
     smearing contrib. (-TS)   =      -0.05627468 Ry
     internal energy E=F+TS    =   -9886.14539047 Ry

     The total energy is F=E-TS. E is the sum of the following terms:
     one-electron contribution = -119311.41374814 Ry
     hartree contribution      =   60557.14867234 Ry
     xc contribution           =   -3197.68310340 Ry
     ewald contribution        =   52065.80278873 Ry

     total magnetization       =     2.61 Bohr mag/cell
     absolute magnetization    =     3.18 Bohr mag/cell

     convergence has been achieved in  64 iterations

     negative rho (up, down):  5.149E-03 5.603E-03

     Forces acting on atoms (cartesian axes, Ry/au):

     atom    1 type  1   force =    -0.00015279   -0.00002983    0.00035571
     atom    2 type  1   force =    -0.00131478   -0.00340725    0.00104354
     atom    3 type  2   force =    -0.00103556    0.00142373   -0.00116734
     atom    4 type  2   force =     0.00433303    0.00562841   -0.00186031
     atom    5 type  2   force =    -0.00129229    0.00010815    0.00034121
     atom    6 type  2   force =    -0.01085642   -0.00810202   -0.01720509
     atom    7 type  1   force =     0.00013731    0.00020178    0.00002673
     atom    8 type  1   force =     0.00009068    0.00020853    0.00134088
     atom    9 type  1   force =     0.00016363   -0.00031273   -0.00076668
     atom   10 type  1   force =    -0.00083592    0.00218627    0.00417419
     atom   11 type  2   force =     0.00052978    0.00037603    0.00185725
     atom   12 type  2   force =     0.00091922   -0.00115081    0.00243137
     atom   13 type  2   force =     0.00069528   -0.00000427    0.00242621
     atom   14 type  2   force =    -0.00095902   -0.00096483   -0.00069944
     atom   15 type  1   force =     0.00004828   -0.00017844   -0.00103001
     atom   16 type  1   force =    -0.00023207    0.00028598   -0.00044482
     atom   17 type  1   force =    -0.00312414    0.00238895   -0.00008278
     atom   18 type  1   force =    -0.00266985    0.00182301   -0.00078351
     atom   19 type  2   force =    -0.00112251    0.00141275   -0.00254814
     atom   20 type  2   force =     0.00383603   -0.00103908    0.00001706
     atom   21 type  2   force =     0.00443525   -0.00157708   -0.00033440
     atom   22 type  2   force =    -0.00167784    0.00155346   -0.00140047
     atom   23 type  1   force =    -0.00536067    0.00122475    0.03096965
     atom   24 type  1   force =    -0.00610814    0.00134235    0.03122848
     atom   25 type  1   force =    -0.00881641    0.00485903   -0.01627207
     atom   26 type  1   force =    -0.00837910    0.00483628   -0.01612884
     atom   27 type  2   force =    -0.02997132    0.01568048   -0.02249033
     atom   28 type  2   force =     0.03414331   -0.01428607   -0.01907356
     atom   29 type  2   force =     0.03387911   -0.01448508   -0.01895224
     atom   30 type  2   force =    -0.03023207    0.01544907   -0.02170763
     atom   31 type  1   force =     0.00729667   -0.00790650    0.02216113
     atom   32 type  1   force =     0.00738983   -0.00801645    0.02228371
     atom   33 type  1   force =     0.00382363    0.00006749   -0.00036433
     atom   34 type  1   force =     0.00194873    0.00003976    0.00155134
     atom   35 type  2   force =     0.00015852    0.00022333   -0.00005630
     atom   36 type  2   force =    -0.04232125   -0.01916291    0.00445170
     atom   37 type  2   force =     0.00027350    0.00123771   -0.00055506
     atom   38 type  2   force =    -0.00140912    0.00000289    0.00136597
     atom   39 type  1   force =     0.00171505    0.00227278    0.00150335
     atom   40 type  1   force =    -0.00056641   -0.00134553    0.00139396
     atom   41 type  1   force =     0.00008441   -0.00076248    0.00017898
     atom   42 type  1   force =     0.00039877   -0.00055281    0.00042831
     atom   43 type  2   force =     0.00130036   -0.00048148    0.00182445
     atom   44 type  2   force =     0.00019981   -0.00073773    0.00085526
     atom   45 type  2   force =     0.00126512    0.00004543    0.00185478
     atom   46 type  2   force =    -0.00030553   -0.00029358    0.00075263
     atom   47 type  1   force =    -0.00150857   -0.00157255   -0.00097670
     atom   48 type  1   force =     0.00020824   -0.00020171    0.00029921
     atom   49 type  1   force =    -0.00169461    0.00176371   -0.00112460
     atom   50 type  1   force =    -0.00255631    0.00188378    0.00051549
     atom   51 type  2   force =    -0.00135287    0.00071097   -0.00192236
     atom   52 type  2   force =     0.00420372   -0.00265118    0.00010679
     atom   53 type  2   force =     0.00391362   -0.00159836   -0.00008457
     atom   54 type  2   force =    -0.00170246    0.00069785   -0.00246392
     atom   55 type  1   force =    -0.00572642    0.00130563    0.03150085
     atom   56 type  1   force =    -0.00539715    0.00103200    0.02990772
     atom   57 type  1   force =    -0.00837407    0.00454111   -0.01604267
     atom   58 type  1   force =    -0.00908065    0.00484801   -0.01534103
     atom   59 type  2   force =    -0.03026896    0.01532366   -0.02152041
     atom   60 type  2   force =     0.03375122   -0.01406632   -0.01915017
     atom   61 type  2   force =     0.03465717   -0.01477475   -0.01884429
     atom   62 type  2   force =    -0.03112627    0.01557096   -0.02229608
     atom   63 type  1   force =     0.00741560   -0.00841177    0.02216824
     atom   64 type  1   force =     0.00826525   -0.00851575    0.02218897
     atom   65 type  1   force =     0.02074757   -0.04695534   -0.02515722
     atom   66 type  1   force =     0.09784407   -0.05867666   -0.06879147
     atom   67 type  2   force =    -0.00018209    0.00076327    0.00130853
     atom   68 type  2   force =     0.00053030    0.00178431    0.00262974
     atom   69 type  2   force =     0.01672838   -0.00631868   -0.00793226
     atom   70 type  2   force =     0.00116060   -0.00022140    0.00218058
     atom   71 type  1   force =    -0.00300581   -0.00710001    0.00105566
     atom   72 type  1   force =    -0.00653074    0.00171877    0.00432937
     atom   73 type  1   force =     0.00113600    0.00033496    0.00022075
     atom   74 type  1   force =     0.00018673    0.00027240    0.00018243
     atom   75 type  2   force =    -0.00015423    0.00046348    0.00180279
     atom   76 type  2   force =     0.00067059    0.00052651    0.00223258
     atom   77 type  2   force =     0.00239861   -0.00469733    0.00185631
     atom   78 type  2   force =    -0.00044932    0.00049438    0.00021898
     atom   79 type  1   force =    -0.00006678    0.00245517   -0.00140834
     atom   80 type  1   force =     0.00062312   -0.00019672   -0.00306216
     atom   81 type  1   force =    -0.00233737    0.00136752   -0.00124377
     atom   82 type  1   force =    -0.00105487    0.00155449   -0.00171767
     atom   83 type  2   force =    -0.00181524    0.00128026   -0.00156986
     atom   84 type  2   force =     0.00434977   -0.00067704   -0.00043314
     atom   85 type  2   force =     0.00269762    0.00020919    0.00128800
     atom   86 type  2   force =    -0.00012793    0.00050935   -0.00104604
     atom   87 type  1   force =    -0.00530339    0.00148714    0.03181146
     atom   88 type  1   force =    -0.00596422    0.00173507    0.03154486
     atom   89 type  1   force =    -0.00847376    0.00465583   -0.01601592
     atom   90 type  1   force =    -0.00844885    0.00429494   -0.01582401
     atom   91 type  2   force =    -0.02938926    0.01607866   -0.02247199
     atom   92 type  2   force =     0.03503078   -0.01283477   -0.01908619
     atom   93 type  2   force =     0.03497819   -0.01357633   -0.01923002
     atom   94 type  2   force =    -0.02946274    0.01631277   -0.02176275
     atom   95 type  1   force =     0.00724282   -0.00753343    0.02199817
     atom   96 type  1   force =     0.00770531   -0.00808164    0.02169793
     atom   97 type  1   force =     0.00047857   -0.00343423    0.00090074
     atom   98 type  1   force =     0.00028974    0.00747429    0.00084690
     atom   99 type  2   force =     0.04128483   -0.01722272   -0.06902801
     atom  100 type  2   force =     0.01659893   -0.00110473   -0.00887834
     atom  101 type  2   force =    -0.02440396    0.06406587    0.00709841
     atom  102 type  2   force =     0.00054085    0.00755923   -0.00260886
     atom  103 type  1   force =    -0.00227298    0.01490251    0.11438220
     atom  104 type  1   force =     0.00379145   -0.00142749    0.00005685
     atom  105 type  1   force =    -0.00444693   -0.00108630    0.01832627
     atom  106 type  1   force =    -0.00108725   -0.00177632    0.00020650
     atom  107 type  2   force =     0.00450770    0.00323107   -0.03374040
     atom  108 type  2   force =     0.00516380    0.00240629    0.00308583
     atom  109 type  2   force =    -0.00020053   -0.00011352    0.00012139
     atom  110 type  2   force =     0.00257174    0.00045661    0.00070961
[...]
     atom   93 type  2   force =     0.03489952   -0.01458403   -0.01791950
     atom   94 type  2   force =    -0.03095169    0.01641117   -0.01911031
     atom   95 type  1   force =     0.00706820   -0.00790498    0.02099149
     atom   96 type  1   force =     0.00737985   -0.00790469    0.02148671
     atom   97 type  1   force =     0.00333884    0.00351915    0.00011239
     atom   98 type  1   force =     0.00456189   -0.00727740   -0.00207014
     atom   99 type  2   force =     0.00116060    0.00342735    0.00129212
     atom  100 type  2   force =    -0.00019386    0.00116969   -0.00257826
     atom  101 type  2   force =    -0.00571273   -0.00212047    0.00528097
     atom  102 type  2   force =     0.00111412    0.00204885   -0.00134647
     atom  103 type  1   force =    -0.00606593    0.00366655    0.00783238
     atom  104 type  1   force =    -0.00174789    0.00033399    0.00023246
     atom  105 type  1   force =    -0.00153934    0.00064647   -0.00090994
     atom  106 type  1   force =    -0.00019943   -0.00181766   -0.00185938
     atom  107 type  2   force =     0.00059224   -0.00033840    0.00289050
     atom  108 type  2   force =    -0.00077827   -0.00059784    0.00256392
     atom  109 type  2   force =    -0.00040385    0.00162729   -0.00134865
     atom  110 type  2   force =     0.00039134    0.00168504   -0.00155420
     atom  111 type  1   force =     0.00116273   -0.00232164    0.00037439
     atom  112 type  1   force =     0.00145567   -0.00042207    0.00043022
     atom  113 type  1   force =     0.00896664   -0.00410600   -0.03092890
     atom  114 type  1   force =    -0.00039979    0.00084905    0.00173555
     atom  115 type  2   force =     0.00448377   -0.00176902    0.00946371
     atom  116 type  2   force =     0.00097000   -0.00352166    0.00127335
     atom  117 type  2   force =     0.00506275   -0.00213943    0.00167052
     atom  118 type  2   force =    -0.00046658   -0.00082807    0.00027872
     atom  119 type  1   force =    -0.00614575    0.00143164    0.03254534
     atom  120 type  1   force =    -0.00491798    0.00125579    0.03186333
     atom  121 type  1   force =    -0.00879339    0.00468027   -0.01747929
     atom  122 type  1   force =    -0.00917713    0.00462919   -0.01716080
     atom  123 type  2   force =    -0.03042980    0.01598961   -0.01928470
     atom  124 type  2   force =     0.03534303   -0.01410287   -0.01807963
     atom  125 type  2   force =     0.03458173   -0.01431267   -0.01891421
     atom  126 type  2   force =    -0.03067168    0.01609682   -0.02010726
     atom  127 type  1   force =     0.00703042   -0.00784998    0.02186736
     atom  128 type  1   force =     0.00747089   -0.00808748    0.02242325
     atom  129 type  3   force =    -0.00107630   -0.00234206    0.00268228
     atom  130 type  4   force =     0.00041195    0.00469725   -0.00484034
     atom  131 type  4   force =     0.00314188   -0.00285995   -0.00367711
     atom  132 type  3   force =    -0.00026065    0.00219549   -0.00208541
     atom  133 type  1   force =    -0.00794597   -0.00282099    0.00622059
     atom  134 type  4   force =     0.00305228   -0.00362855   -0.00335015

     Total force =     0.033044     Total SCF correction =     0.002487
     Energy error            =      1.5E-03
     Gradient error          =      7.9E-03

     number of scf cycles    =  43
     number of bfgs steps    =  42

     energy   old            =   -9886.8051270690 Ry
     energy   new            =   -9886.8066215265 Ry

     CASE: energy  _new < energy  _old

     new trust radius        =       0.0735978535 bohr
     new conv_thr            =       0.0000010000 Ry


ATOMIC_POSITIONS (angstrom)
O             8.5234529052        3.4869740287       18.6910076923
O            -3.5304706074        6.1530933803       18.6493391373
Cu           -0.8749030105        1.5295673622       18.1103237681
Cu            2.3520872611        1.5943306188       18.2008766073
Cu           -3.0098401382        4.3677328861       18.1910974515
Cu            0.3594191188        4.3562864957       18.2244995427
O            10.6322437737        2.4805203587       17.6553066830
O            -1.3184595927        5.2560525335       17.7100468677
O            -0.6170986870        1.4734966542       16.0681852934
O             0.5593902935        4.1813973209       16.2552491469
Cu           10.8790095967        2.3775446321       15.6686602903
Cu            1.0106123868        2.3735185337       15.6130273653
Cu            8.7807766661        5.0686484196       15.5514699787
Cu           -1.0567916429        5.0867483384       15.7082088631
O             9.2398979361        3.2356897436       15.0536107334
O            -2.6827038102        5.9422299210       15.0609326618
O            11.1486840000        2.2334720000       13.7143440000    0   0   0
O            -0.8023490000        4.9239020000       13.7143470000    0   0   0
Cu            9.5017320000        3.1128110000       13.1161730000    0   0   0
Cu           -0.3485900000        3.1127790000       13.1161390000    0   0   0
Cu            7.4009800000        5.8033130000       13.1161180000    0   0   0
Cu           -2.4493430000        5.8032830000       13.1160830000    0   0   0
O             0.1051970000        1.3017660000       12.5179100000    0   0   0
O             1.2878790000        3.9921910000       12.5179070000    0   0   0
O             9.8201840000        2.9631140000       11.1964400000    0   0   0
O            -2.1308530000        5.6535400000       11.1964370000    0   0   0
Cu            0.4236890000        1.1520210000       10.5982660000    0   0   0
Cu            3.7070840000        1.1519910000       10.5982320000    0   0   0
Cu           -1.6770660000        3.8425240000       10.5982090000    0   0   0
Cu            1.6063330000        3.8424940000       10.5981740000    0   0   0
O            -1.2233060000        2.0314030000       10.0000000000    0   0   0
O            -0.0406210000        4.7218340000       10.0000030000    0   0   0
O             4.2574658383        8.8221442591       18.6845745970
O             0.6986164814        0.7553390300       18.7103395168
Cu           -5.0733412050        7.0114519355       18.1195454263
Cu           -1.8690815740        7.0380982013       18.3782086935
Cu           -7.2617188378        9.7120915276       18.2106590398
Cu           -3.9144140037        9.6154494519       18.1364124056
O             6.4007471267        7.8650687013       17.6495608387
O            -5.5525636211       10.5009593486       17.6651672930
O            -4.8070921953        6.8752580604       16.0718946878
O            -3.6311693394        9.5600020039       16.0948574851
Cu            6.6625041989        7.7478010949       15.6675010285
Cu           -3.1714238853        7.7553975016       15.5765358575
Cu            4.5513617302       10.4242166573       15.5510884670
Cu           -5.2930351316       10.4206202667       15.6706474783
O             5.0063362187        8.5809108965       15.0559864749
O             1.4860675334        0.5435582438       15.0547478654
O             6.9471920000        7.6143280000       13.7143440000    0   0   0
O            -5.0038400000       10.3047600000       13.7143470000    0   0   0
Cu            5.3002390000        8.4936690000       13.1161730000    0   0   0
Cu           -4.5500820000        8.4936370000       13.1161390000    0   0   0
Cu           11.6024710000        0.4224550000       13.1161180000    0   0   0
Cu            1.7521510000        0.4224250000       13.1160830000    0   0   0
O            -4.0962950000        6.6826220000       12.5179100000    0   0   0
O            -2.9136130000        9.3730490000       12.5179070000    0   0   0
O             5.6186910000        8.3439720000       11.1964400000    0   0   0
O             2.0706380000        0.2726820000       11.1964370000    0   0   0
Cu           -3.7778050000        6.5328800000       10.5982660000    0   0   0
Cu           -0.4944080000        6.5328490000       10.5982320000    0   0   0
Cu           -5.8785570000        9.2233820000       10.5982090000    0   0   0
Cu           -2.5951600000        9.2233520000       10.5981740000    0   0   0
O            -5.4247980000        7.4122610000       10.0000000000    0   0   0
O            -4.2421140000       10.1026910000       10.0000030000    0   0   0
O             1.9786929787        3.4206376270       18.6709476536
O             3.2308217558        6.0305856912       18.8706019919
Cu            5.7459364103        1.6823470263       18.1478763698
Cu            8.9333655663        1.6857811367       18.2125891030
Cu            3.6329398640        4.2732423898       18.2575159172
Cu            6.9517711042        4.2681165945       18.1134851706
O             4.0713224012        2.4458589221       17.6507123389
O             5.2903727776        5.1315236672       17.6541624679
O             5.9443627429        1.4707242396       16.0950061545
O             7.1483849523        4.1884889356       16.0599528289
Cu            4.2879506260        2.3554753093       15.6594067749
Cu            7.5703718596        2.3661791020       15.5607588510
Cu            2.1584456769        5.0882039276       15.6549712589
Cu            5.4798996382        5.0585769375       15.6679910520
O             2.6465985902        3.2667152886       15.0644914939
O             3.8153322278        5.9200607478       15.0715919532
O             4.5818250000        2.2334720000       13.7143440000    0   0   0
O             5.7645100000        4.9239020000       13.7143470000    0   0   0
Cu            2.9348730000        3.1128110000       13.1161730000    0   0   0
Cu            6.2182690000        3.1127790000       13.1161390000    0   0   0
Cu            0.8341210000        5.8033130000       13.1161180000    0   0   0
Cu            4.1175180000        5.8032830000       13.1160830000    0   0   0
O             6.6720560000        1.3017660000       12.5179100000    0   0   0
O             7.8547390000        3.9921910000       12.5179070000    0   0   0
O             3.2533250000        2.9631140000       11.1964400000    0   0   0
O             4.4360070000        5.6535400000       11.1964370000    0   0   0
Cu            6.9905460000        1.1520210000       10.5982660000    0   0   0
Cu           10.2739430000        1.1519910000       10.5982320000    0   0   0
Cu            4.8897950000        3.8425240000       10.5982090000    0   0   0
Cu            8.1731920000        3.8424940000       10.5981740000    0   0   0
O             5.3435530000        2.0314030000       10.0000000000    0   0   0
O             6.5262380000        4.7218340000       10.0000030000    0   0   0
O            -2.3025057788        8.8768876251       18.6374703124
O             7.2970584655        0.9239906298       18.7567196950
Cu            1.6874572927        6.8352114830       18.3366015989
Cu            4.7533366099        6.9788332672       18.2575727316
Cu           -0.6914683526        9.8380346353       18.2757955479
Cu            2.6934460488        9.6820296018       18.1532539589
O             0.0535712943        7.7894488719       18.6847643161
O             1.0409597399       10.5943675939       17.6899824899
O             1.6917768592        6.9111271868       16.3051369653
O             2.9210202088        9.5514157587       16.1103723079
Cu            0.1261052366        7.7606011737       15.6815317414
Cu            3.3308925039        7.7369118603       15.6091359817
Cu           -1.9950539029       10.4348105826       15.5923595117
Cu            1.2723631318       10.4222457865       15.6906816488
O            -1.5010222146        8.6220986479       15.0841717172
O             8.0561881235        0.5389044462       15.0539967397
O             0.3803330000        7.6143280000       13.7143440000    0   0   0
O             1.5630180000       10.3047600000       13.7143470000    0   0   0
Cu           -1.2666180000        8.4936690000       13.1161730000    0   0   0
Cu            2.0167770000        8.4936370000       13.1161390000    0   0   0
Cu            5.0356130000        0.4224550000       13.1161180000    0   0   0
Cu            8.3190100000        0.4224250000       13.1160830000    0   0   0
O             2.4705640000        6.6826220000       12.5179100000    0   0   0
O             3.6532460000        9.3730490000       12.5179070000    0   0   0
O            -0.9481660000        8.3439720000       11.1964400000    0   0   0
O             8.6374990000        0.2726820000       11.1964370000    0   0   0
Cu            2.7890550000        6.5328800000       10.5982660000    0   0   0
Cu            6.0724510000        6.5328490000       10.5982320000    0   0   0
Cu            0.6883010000        9.2233820000       10.5982090000    0   0   0
Cu            3.9717000000        9.2233520000       10.5981740000    0   0   0
O             1.1420610000        7.4122610000       10.0000000000    0   0   0
O             2.3247460000       10.1026910000       10.0000030000    0   0   0
N             1.8664000095        8.7845887973       21.4250568515
H             0.9388305498        3.9134722491       20.6356007399
H            -0.1841652023        4.9843059611       21.0176088651
N             2.4938303787        8.4899945372       22.2949949505
O             0.1437645881        4.3889109753       20.3193461094
H             0.0405536261        7.9665633930       19.6466260771



     Writing output data file ./pwscf.save/
     NEW-OLD atomic charge density approx. for the potential

     negative rho (up, down):  5.229E-03 5.229E-03
     Generating pointlists ...

     total cpu time spent up to now is   171347.4 secs

     Self-consistent Calculation

     iteration #  1     ecut=    25.00 Ry     beta= 0.10
     Davidson diagonalization with overlap
     ethr =  1.00E-06,  avg # of iterations =  6.0

     negative rho (up, down):  5.215E-03 5.215E-03

     total cpu time spent up to now is   171745.4 secs

     total energy              =   -9886.80760472 Ry
     estimated scf accuracy    <       0.00690455 Ry

     total magnetization       =     0.00 Bohr mag/cell
     absolute magnetization    =     0.02 Bohr mag/cell

     iteration #  2     ecut=    25.00 Ry     beta= 0.10
     Davidson diagonalization with overlap
     ethr =  6.24E-07,  avg # of iterations =  1.0

     negative rho (up, down):  5.214E-03 5.215E-03

     total cpu time spent up to now is   171900.0 secs

     total energy              =   -9886.80765192 Ry
     estimated scf accuracy    <       0.01654576 Ry

     total magnetization       =     0.00 Bohr mag/cell
     absolute magnetization    =     0.02 Bohr mag/cell

     iteration #  3     ecut=    25.00 Ry     beta= 0.10
     Davidson diagonalization with overlap
     ethr =  6.24E-07,  avg # of iterations =  1.0

     negative rho (up, down):  5.220E-03 5.221E-03

     total cpu time spent up to now is   172054.6 secs

     total energy              =   -9886.80802347 Ry
     estimated scf accuracy    <       0.00621214 Ry

     total magnetization       =     0.00 Bohr mag/cell
     absolute magnetization    =     0.02 Bohr mag/cell

     iteration #  4     ecut=    25.00 Ry     beta= 0.10
     Davidson diagonalization with overlap
     ethr =  5.61E-07,  avg # of iterations =  1.0

     negative rho (up, down):  5.234E-03 5.235E-03

     total cpu time spent up to now is   172209.2 secs

     total energy              =   -9886.80797533 Ry
     estimated scf accuracy    <       0.01404714 Ry

     total magnetization       =     0.00 Bohr mag/cell
     absolute magnetization    =     0.02 Bohr mag/cell

     iteration #  5     ecut=    25.00 Ry     beta= 0.10
     Davidson diagonalization with overlap
     ethr =  5.61E-07,  avg # of iterations =  1.0

     negative rho (up, down):  5.195E-03 5.195E-03

     total cpu time spent up to now is   172361.2 secs

     total energy              =   -9886.80792989 Ry
     estimated scf accuracy    <       0.00302652 Ry

     total magnetization       =     0.00 Bohr mag/cell
     absolute magnetization    =     0.02 Bohr mag/cell

     iteration #  6     ecut=    25.00 Ry     beta= 0.10
     Davidson diagonalization with overlap
     ethr =  2.73E-07,  avg # of iterations =  2.0

     negative rho (up, down):  5.212E-03 5.213E-03

     total cpu time spent up to now is   172535.1 secs

     total energy              =   -9886.80776284 Ry
     estimated scf accuracy    <       0.00211583 Ry

     total magnetization       =     0.00 Bohr mag/cell
     absolute magnetization    =     0.02 Bohr mag/cell

     iteration #  7     ecut=    25.00 Ry     beta= 0.10
     Davidson diagonalization with overlap
     ethr =  1.91E-07,  avg # of iterations =  2.0

     negative rho (up, down):  5.224E-03 5.225E-03

     total cpu time spent up to now is   172709.7 secs

     total energy              =   -9886.80782808 Ry
     estimated scf accuracy    <       0.00080741 Ry

     total magnetization       =     0.00 Bohr mag/cell
     absolute magnetization    =     0.02 Bohr mag/cell

     iteration #  8     ecut=    25.00 Ry     beta= 0.10
     Davidson diagonalization with overlap

     Maximum CPU time exceeded

     max_seconds     =  172800.00
     elapsed seconds =  172855.90
     Calculation stopped in k-point loop, point #     2
     Calculation stopped in scf loop at iteration #     7

     Writing output data file ./pwscf.save/

     init_run     :     77.98s CPU     80.80s WALL (       1 calls)
     electrons    : 168268.99s CPU 169220.10s WALL (      44 calls)
     update_pot   :    120.84s CPU    123.41s WALL (      43 calls)
     forces       :   3147.80s CPU   3167.08s WALL (      43 calls)

     Called by init_run:
     wfcinit      :     69.39s CPU     70.26s WALL (       1 calls)
     potinit      :      1.49s CPU      1.72s WALL (       1 calls)
     hinit0       :      2.22s CPU      3.09s WALL (       1 calls)

     Called by electrons:
     c_bands      : 143697.75s CPU 144224.83s WALL (     947 calls)
     sum_band     :  19527.68s CPU  19749.62s WALL (     946 calls)
     v_of_rho     :    362.94s CPU    413.78s WALL (     989 calls)
     newd         :   4798.64s CPU   4951.82s WALL (     989 calls)
     mix_rho      :     63.53s CPU     66.51s WALL (     946 calls)

     Called by c_bands:
     init_us_2    :     65.88s CPU     66.02s WALL (    3874 calls)
     regterg      : 143345.95s CPU 143870.57s WALL (    1894 calls)

     Called by *egterg:
     rdiaghg      :   4545.74s CPU   4569.60s WALL (    5295 calls)
     h_psi        :  58251.93s CPU  58563.24s WALL (    5385 calls)
     s_psi        :  25101.36s CPU  25109.24s WALL (    5385 calls)
     g_psi        :     16.89s CPU     16.92s WALL (    3489 calls)

     Called by h_psi:
     h_psi:calbec :  28943.81s CPU  28971.83s WALL (    5385 calls)
     vloc_psi     :   3897.01s CPU   4170.78s WALL (    5385 calls)
     add_vuspsi   :  25378.77s CPU  25388.28s WALL (    5385 calls)

     General routines
     calbec       :  45009.36s CPU  45052.57s WALL (    7621 calls)
     fft          :    564.61s CPU    595.37s WALL (   21155 calls)
     ffts         :      9.55s CPU     10.36s WALL (    3870 calls)
     fftw         :   3387.52s CPU   3622.00s WALL ( 3301776 calls)
     interpolate  :     35.77s CPU     38.19s WALL (    1978 calls)
     davcio       :      0.01s CPU      0.09s WALL (      16 calls)

     Parallel routines
     fft_scatt_xy :    502.53s CPU    535.12s WALL ( 3326801 calls)
     fft_scatt_yz :   1339.44s CPU   1444.69s WALL ( 3326801 calls)

     PWSCF        :   1d23h44m CPU   2d 0h 0m WALL


   This run was terminated on:   5: 6: 5  11Sep2025            

=------------------------------------------------------------------------------=
   JOB DONE.
=------------------------------------------------------------------------------=
